(written by ASE)

512 atoms
0 bonds
2 atom types
0 bond types

0.0 2488.131871 xlo xhi
0.0 4559.020850 ylo yhi
0.0 2521.312658 zlo zhi
0.0 0.0 0.0 xy xz yz

Atoms # full

     1   0   1   0.0   -447.951474   90.567857   -123.687342
     2   0   1   0.0   -750.361275   614.356997   -123.687342
     3   0   1   0.0   -1052.771077   1138.146138   -123.687342
     4   0   1   0.0   -1355.180878   1661.935279   -123.687342
     5   0   1   0.0   -750.361275   -433.221284   -123.687342
     6   0   1   0.0   -1052.771077   90.567857   -123.687342
     7   0   1   0.0   -1355.180878   614.356997   -123.687342
     8   0   1   0.0   -1657.590680   1138.146138   -123.687342
     9   0   1   0.0   -1052.771077   -957.010425   -123.687342
    10   0   1   0.0   -1355.180878   -433.221284   -123.687342
    11   0   1   0.0   -1657.590680   90.567857   -123.687342
    12   0   1   0.0   -1960.000481   614.356997   -123.687342
    13   0   1   0.0   -1355.180878   -1480.799566   -123.687342
    14   0   1   0.0   -1657.590680   -957.010425   -123.687342
    15   0   1   0.0   -1960.000481   -433.221284   -123.687342
    16   0   1   0.0   -2262.410282   90.567857   -123.687342
    17   0   1   0.0   -447.951474   90.567857   -618.436709
    18   0   1   0.0   -750.361275   614.356997   -618.436709
    19   0   1   0.0   -1052.771077   1138.146138   -618.436709
    20   0   1   0.0   -1355.180878   1661.935279   -618.436709
    21   0   1   0.0   -750.361275   -433.221284   -618.436709
    22   0   1   0.0   -1052.771077   90.567857   -618.436709
    23   0   1   0.0   -1355.180878   614.356997   -618.436709
    24   0   1   0.0   -1657.590680   1138.146138   -618.436709
    25   0   1   0.0   -1052.771077   -957.010425   -618.436709
    26   0   1   0.0   -1355.180878   -433.221284   -618.436709
    27   0   1   0.0   -1657.590680   90.567857   -618.436709
    28   0   1   0.0   -1960.000481   614.356997   -618.436709
    29   0   1   0.0   -1355.180878   -1480.799566   -618.436709
    30   0   1   0.0   -1657.590680   -957.010425   -618.436709
    31   0   1   0.0   -1960.000481   -433.221284   -618.436709
    32   0   1   0.0   -2262.410282   90.567857   -618.436709
    33   0   1   0.0   -447.951474   90.567857   -1113.186076
    34   0   1   0.0   -750.361275   614.356997   -1113.186076
    35   0   1   0.0   -1052.771077   1138.146138   -1113.186076
    36   0   1   0.0   -1355.180878   1661.935279   -1113.186076
    37   0   1   0.0   -750.361275   -433.221284   -1113.186076
    38   0   1   0.0   -1052.771077   90.567857   -1113.186076
    39   0   1   0.0   -1355.180878   614.356997   -1113.186076
    40   0   1   0.0   -1657.590680   1138.146138   -1113.186076
    41   0   1   0.0   -1052.771077   -957.010425   -1113.186076
    42   0   1   0.0   -1355.180878   -433.221284   -1113.186076
    43   0   1   0.0   -1657.590680   90.567857   -1113.186076
    44   0   1   0.0   -1960.000481   614.356997   -1113.186076
    45   0   1   0.0   -1355.180878   -1480.799566   -1113.186076
    46   0   1   0.0   -1657.590680   -957.010425   -1113.186076
    47   0   1   0.0   -1960.000481   -433.221284   -1113.186076
    48   0   1   0.0   -2262.410282   90.567857   -1113.186076
    49   0   1   0.0   -447.951474   90.567857   -1607.935443
    50   0   1   0.0   -750.361275   614.356997   -1607.935443
    51   0   1   0.0   -1052.771077   1138.146138   -1607.935443
    52   0   1   0.0   -1355.180878   1661.935279   -1607.935443
    53   0   1   0.0   -750.361275   -433.221284   -1607.935443
    54   0   1   0.0   -1052.771077   90.567857   -1607.935443
    55   0   1   0.0   -1355.180878   614.356997   -1607.935443
    56   0   1   0.0   -1657.590680   1138.146138   -1607.935443
    57   0   1   0.0   -1052.771077   -957.010425   -1607.935443
    58   0   1   0.0   -1355.180878   -433.221284   -1607.935443
    59   0   1   0.0   -1657.590680   90.567857   -1607.935443
    60   0   1   0.0   -1960.000481   614.356997   -1607.935443
    61   0   1   0.0   -1355.180878   -1480.799566   -1607.935443
    62   0   1   0.0   -1657.590680   -957.010425   -1607.935443
    63   0   1   0.0   -1960.000481   -433.221284   -1607.935443
    64   0   1   0.0   -2262.410282   90.567857   -1607.935443
    65   0   1   0.0   -156.868129   90.567857   -123.687342
    66   0   1   0.0   -459.277931   614.356997   -123.687342
    67   0   1   0.0   -761.687732   1138.146138   -123.687342
    68   0   1   0.0   -1064.097533   1661.935279   -123.687342
    69   0   1   0.0   -459.277931   -433.221284   -123.687342
    70   0   1   0.0   -761.687732   90.567857   -123.687342
    71   0   1   0.0   -1064.097533   614.356997   -123.687342
    72   0   1   0.0   -1366.507335   1138.146138   -123.687342
    73   0   1   0.0   -761.687732   -957.010425   -123.687342
    74   0   1   0.0   -1064.097533   -433.221284   -123.687342
    75   0   1   0.0   -1366.507335   90.567857   -123.687342
    76   0   1   0.0   -1668.917136   614.356997   -123.687342
    77   0   1   0.0   -1064.097533   -1480.799566   -123.687342
    78   0   1   0.0   -1366.507335   -957.010425   -123.687342
    79   0   1   0.0   -1668.917136   -433.221284   -123.687342
    80   0   1   0.0   -1971.326938   90.567857   -123.687342
    81   0   1   0.0   -156.868129   90.567857   -618.436709
    82   0   1   0.0   -459.277931   614.356997   -618.436709
    83   0   1   0.0   -761.687732   1138.146138   -618.436709
    84   0   1   0.0   -1064.097533   1661.935279   -618.436709
    85   0   1   0.0   -459.277931   -433.221284   -618.436709
    86   0   1   0.0   -761.687732   90.567857   -618.436709
    87   0   1   0.0   -1064.097533   614.356997   -618.436709
    88   0   1   0.0   -1366.507335   1138.146138   -618.436709
    89   0   1   0.0   -761.687732   -957.010425   -618.436709
    90   0   1   0.0   -1064.097533   -433.221284   -618.436709
    91   0   1   0.0   -1366.507335   90.567857   -618.436709
    92   0   1   0.0   -1668.917136   614.356997   -618.436709
    93   0   1   0.0   -1064.097533   -1480.799566   -618.436709
    94   0   1   0.0   -1366.507335   -957.010425   -618.436709
    95   0   1   0.0   -1668.917136   -433.221284   -618.436709
    96   0   1   0.0   -1971.326938   90.567857   -618.436709
    97   0   1   0.0   -156.868129   90.567857   -1113.186076
    98   0   1   0.0   -459.277931   614.356997   -1113.186076
    99   0   1   0.0   -761.687732   1138.146138   -1113.186076
   100   0   1   0.0   -1064.097533   1661.935279   -1113.186076
   101   0   1   0.0   -459.277931   -433.221284   -1113.186076
   102   0   1   0.0   -761.687732   90.567857   -1113.186076
   103   0   1   0.0   -1064.097533   614.356997   -1113.186076
   104   0   1   0.0   -1366.507335   1138.146138   -1113.186076
   105   0   1   0.0   -761.687732   -957.010425   -1113.186076
   106   0   1   0.0   -1064.097533   -433.221284   -1113.186076
   107   0   1   0.0   -1366.507335   90.567857   -1113.186076
   108   0   1   0.0   -1668.917136   614.356997   -1113.186076
   109   0   1   0.0   -1064.097533   -1480.799566   -1113.186076
   110   0   1   0.0   -1366.507335   -957.010425   -1113.186076
   111   0   1   0.0   -1668.917136   -433.221284   -1113.186076
   112   0   1   0.0   -1971.326938   90.567857   -1113.186076
   113   0   1   0.0   -156.868129   90.567857   -1607.935443
   114   0   1   0.0   -459.277931   614.356997   -1607.935443
   115   0   1   0.0   -761.687732   1138.146138   -1607.935443
   116   0   1   0.0   -1064.097533   1661.935279   -1607.935443
   117   0   1   0.0   -459.277931   -433.221284   -1607.935443
   118   0   1   0.0   -761.687732   90.567857   -1607.935443
   119   0   1   0.0   -1064.097533   614.356997   -1607.935443
   120   0   1   0.0   -1366.507335   1138.146138   -1607.935443
   121   0   1   0.0   -761.687732   -957.010425   -1607.935443
   122   0   1   0.0   -1064.097533   -433.221284   -1607.935443
   123   0   1   0.0   -1366.507335   90.567857   -1607.935443
   124   0   1   0.0   -1668.917136   614.356997   -1607.935443
   125   0   1   0.0   -1064.097533   -1480.799566   -1607.935443
   126   0   1   0.0   -1366.507335   -957.010425   -1607.935443
   127   0   1   0.0   -1668.917136   -433.221284   -1607.935443
   128   0   1   0.0   -1971.326938   90.567857   -1607.935443
   129   0   1   0.0   -302.409801   342.653428   -123.687342
   130   0   1   0.0   -604.819603   866.442568   -123.687342
   131   0   1   0.0   -907.229404   1390.231709   -123.687342
   132   0   1   0.0   -1209.639206   1914.020850   -123.687342
   133   0   1   0.0   -604.819603   -181.135713   -123.687342
   134   0   1   0.0   -907.229404   342.653428   -123.687342
   135   0   1   0.0   -1209.639206   866.442568   -123.687342
   136   0   1   0.0   -1512.049007   1390.231709   -123.687342
   137   0   1   0.0   -907.229404   -704.924854   -123.687342
   138   0   1   0.0   -1209.639206   -181.135713   -123.687342
   139   0   1   0.0   -1512.049007   342.653428   -123.687342
   140   0   1   0.0   -1814.458809   866.442568   -123.687342
   141   0   1   0.0   -1209.639206   -1228.713995   -123.687342
   142   0   1   0.0   -1512.049007   -704.924854   -123.687342
   143   0   1   0.0   -1814.458809   -181.135713   -123.687342
   144   0   1   0.0   -2116.868610   342.653428   -123.687342
   145   0   1   0.0   -302.409801   342.653428   -618.436709
   146   0   1   0.0   -604.819603   866.442568   -618.436709
   147   0   1   0.0   -907.229404   1390.231709   -618.436709
   148   0   1   0.0   -1209.639206   1914.020850   -618.436709
   149   0   1   0.0   -604.819603   -181.135713   -618.436709
   150   0   1   0.0   -907.229404   342.653428   -618.436709
   151   0   1   0.0   -1209.639206   866.442568   -618.436709
   152   0   1   0.0   -1512.049007   1390.231709   -618.436709
   153   0   1   0.0   -907.229404   -704.924854   -618.436709
   154   0   1   0.0   -1209.639206   -181.135713   -618.436709
   155   0   1   0.0   -1512.049007   342.653428   -618.436709
   156   0   1   0.0   -1814.458809   866.442568   -618.436709
   157   0   1   0.0   -1209.639206   -1228.713995   -618.436709
   158   0   1   0.0   -1512.049007   -704.924854   -618.436709
   159   0   1   0.0   -1814.458809   -181.135713   -618.436709
   160   0   1   0.0   -2116.868610   342.653428   -618.436709
   161   0   1   0.0   -302.409801   342.653428   -1113.186076
   162   0   1   0.0   -604.819603   866.442568   -1113.186076
   163   0   1   0.0   -907.229404   1390.231709   -1113.186076
   164   0   1   0.0   -1209.639206   1914.020850   -1113.186076
   165   0   1   0.0   -604.819603   -181.135713   -1113.186076
   166   0   1   0.0   -907.229404   342.653428   -1113.186076
   167   0   1   0.0   -1209.639206   866.442568   -1113.186076
   168   0   1   0.0   -1512.049007   1390.231709   -1113.186076
   169   0   1   0.0   -907.229404   -704.924854   -1113.186076
   170   0   1   0.0   -1209.639206   -181.135713   -1113.186076
   171   0   1   0.0   -1512.049007   342.653428   -1113.186076
   172   0   1   0.0   -1814.458809   866.442568   -1113.186076
   173   0   1   0.0   -1209.639206   -1228.713995   -1113.186076
   174   0   1   0.0   -1512.049007   -704.924854   -1113.186076
   175   0   1   0.0   -1814.458809   -181.135713   -1113.186076
   176   0   1   0.0   -2116.868610   342.653428   -1113.186076
   177   0   1   0.0   -302.409801   342.653428   -1607.935443
   178   0   1   0.0   -604.819603   866.442568   -1607.935443
   179   0   1   0.0   -907.229404   1390.231709   -1607.935443
   180   0   1   0.0   -1209.639206   1914.020850   -1607.935443
   181   0   1   0.0   -604.819603   -181.135713   -1607.935443
   182   0   1   0.0   -907.229404   342.653428   -1607.935443
   183   0   1   0.0   -1209.639206   866.442568   -1607.935443
   184   0   1   0.0   -1512.049007   1390.231709   -1607.935443
   185   0   1   0.0   -907.229404   -704.924854   -1607.935443
   186   0   1   0.0   -1209.639206   -181.135713   -1607.935443
   187   0   1   0.0   -1512.049007   342.653428   -1607.935443
   188   0   1   0.0   -1814.458809   866.442568   -1607.935443
   189   0   1   0.0   -1209.639206   -1228.713995   -1607.935443
   190   0   1   0.0   -1512.049007   -704.924854   -1607.935443
   191   0   1   0.0   -1814.458809   -181.135713   -1607.935443
   192   0   1   0.0   -2116.868610   342.653428   -1607.935443
   193   0   1   0.0   -156.868129   -90.567857   -371.062025
   194   0   1   0.0   -459.277931   433.221284   -371.062025
   195   0   1   0.0   -761.687732   957.010425   -371.062025
   196   0   1   0.0   -1064.097533   1480.799566   -371.062025
   197   0   1   0.0   -459.277931   -614.356997   -371.062025
   198   0   1   0.0   -761.687732   -90.567857   -371.062025
   199   0   1   0.0   -1064.097533   433.221284   -371.062025
   200   0   1   0.0   -1366.507335   957.010425   -371.062025
   201   0   1   0.0   -761.687732   -1138.146138   -371.062025
   202   0   1   0.0   -1064.097533   -614.356997   -371.062025
   203   0   1   0.0   -1366.507335   -90.567857   -371.062025
   204   0   1   0.0   -1668.917136   433.221284   -371.062025
   205   0   1   0.0   -1064.097533   -1661.935279   -371.062025
   206   0   1   0.0   -1366.507335   -1138.146138   -371.062025
   207   0   1   0.0   -1668.917136   -614.356997   -371.062025
   208   0   1   0.0   -1971.326938   -90.567857   -371.062025
   209   0   1   0.0   -156.868129   -90.567857   -865.811392
   210   0   1   0.0   -459.277931   433.221284   -865.811392
   211   0   1   0.0   -761.687732   957.010425   -865.811392
   212   0   1   0.0   -1064.097533   1480.799566   -865.811392
   213   0   1   0.0   -459.277931   -614.356997   -865.811392
   214   0   1   0.0   -761.687732   -90.567857   -865.811392
   215   0   1   0.0   -1064.097533   433.221284   -865.811392
   216   0   1   0.0   -1366.507335   957.010425   -865.811392
   217   0   1   0.0   -761.687732   -1138.146138   -865.811392
   218   0   1   0.0   -1064.097533   -614.356997   -865.811392
   219   0   1   0.0   -1366.507335   -90.567857   -865.811392
   220   0   1   0.0   -1668.917136   433.221284   -865.811392
   221   0   1   0.0   -1064.097533   -1661.935279   -865.811392
   222   0   1   0.0   -1366.507335   -1138.146138   -865.811392
   223   0   1   0.0   -1668.917136   -614.356997   -865.811392
   224   0   1   0.0   -1971.326938   -90.567857   -865.811392
   225   0   1   0.0   -156.868129   -90.567857   -1360.560759
   226   0   1   0.0   -459.277931   433.221284   -1360.560759
   227   0   1   0.0   -761.687732   957.010425   -1360.560759
   228   0   1   0.0   -1064.097533   1480.799566   -1360.560759
   229   0   1   0.0   -459.277931   -614.356997   -1360.560759
   230   0   1   0.0   -761.687732   -90.567857   -1360.560759
   231   0   1   0.0   -1064.097533   433.221284   -1360.560759
   232   0   1   0.0   -1366.507335   957.010425   -1360.560759
   233   0   1   0.0   -761.687732   -1138.146138   -1360.560759
   234   0   1   0.0   -1064.097533   -614.356997   -1360.560759
   235   0   1   0.0   -1366.507335   -90.567857   -1360.560759
   236   0   1   0.0   -1668.917136   433.221284   -1360.560759
   237   0   1   0.0   -1064.097533   -1661.935279   -1360.560759
   238   0   1   0.0   -1366.507335   -1138.146138   -1360.560759
   239   0   1   0.0   -1668.917136   -614.356997   -1360.560759
   240   0   1   0.0   -1971.326938   -90.567857   -1360.560759
   241   0   1   0.0   -156.868129   -90.567857   -1855.310126
   242   0   1   0.0   -459.277931   433.221284   -1855.310126
   243   0   1   0.0   -761.687732   957.010425   -1855.310126
   244   0   1   0.0   -1064.097533   1480.799566   -1855.310126
   245   0   1   0.0   -459.277931   -614.356997   -1855.310126
   246   0   1   0.0   -761.687732   -90.567857   -1855.310126
   247   0   1   0.0   -1064.097533   433.221284   -1855.310126
   248   0   1   0.0   -1366.507335   957.010425   -1855.310126
   249   0   1   0.0   -761.687732   -1138.146138   -1855.310126
   250   0   1   0.0   -1064.097533   -614.356997   -1855.310126
   251   0   1   0.0   -1366.507335   -90.567857   -1855.310126
   252   0   1   0.0   -1668.917136   433.221284   -1855.310126
   253   0   1   0.0   -1064.097533   -1661.935279   -1855.310126
   254   0   1   0.0   -1366.507335   -1138.146138   -1855.310126
   255   0   1   0.0   -1668.917136   -614.356997   -1855.310126
   256   0   1   0.0   -1971.326938   -90.567857   -1855.310126
   257   0   1   0.0   -447.951474   -90.567857   -371.062025
   258   0   1   0.0   -750.361275   433.221284   -371.062025
   259   0   1   0.0   -1052.771077   957.010425   -371.062025
   260   0   1   0.0   -1355.180878   1480.799566   -371.062025
   261   0   1   0.0   -750.361275   -614.356997   -371.062025
   262   0   1   0.0   -1052.771077   -90.567857   -371.062025
   263   0   1   0.0   -1355.180878   433.221284   -371.062025
   264   0   1   0.0   -1657.590680   957.010425   -371.062025
   265   0   1   0.0   -1052.771077   -1138.146138   -371.062025
   266   0   1   0.0   -1355.180878   -614.356997   -371.062025
   267   0   1   0.0   -1657.590680   -90.567857   -371.062025
   268   0   1   0.0   -1960.000481   433.221284   -371.062025
   269   0   1   0.0   -1355.180878   -1661.935279   -371.062025
   270   0   1   0.0   -1657.590680   -1138.146138   -371.062025
   271   0   1   0.0   -1960.000481   -614.356997   -371.062025
   272   0   1   0.0   -2262.410282   -90.567857   -371.062025
   273   0   1   0.0   -447.951474   -90.567857   -865.811392
   274   0   1   0.0   -750.361275   433.221284   -865.811392
   275   0   1   0.0   -1052.771077   957.010425   -865.811392
   276   0   1   0.0   -1355.180878   1480.799566   -865.811392
   277   0   1   0.0   -750.361275   -614.356997   -865.811392
   278   0   1   0.0   -1052.771077   -90.567857   -865.811392
   279   0   1   0.0   -1355.180878   433.221284   -865.811392
   280   0   1   0.0   -1657.590680   957.010425   -865.811392
   281   0   1   0.0   -1052.771077   -1138.146138   -865.811392
   282   0   1   0.0   -1355.180878   -614.356997   -865.811392
   283   0   1   0.0   -1657.590680   -90.567857   -865.811392
   284   0   1   0.0   -1960.000481   433.221284   -865.811392
   285   0   1   0.0   -1355.180878   -1661.935279   -865.811392
   286   0   1   0.0   -1657.590680   -1138.146138   -865.811392
   287   0   1   0.0   -1960.000481   -614.356997   -865.811392
   288   0   1   0.0   -2262.410282   -90.567857   -865.811392
   289   0   1   0.0   -447.951474   -90.567857   -1360.560759
   290   0   1   0.0   -750.361275   433.221284   -1360.560759
   291   0   1   0.0   -1052.771077   957.010425   -1360.560759
   292   0   1   0.0   -1355.180878   1480.799566   -1360.560759
   293   0   1   0.0   -750.361275   -614.356997   -1360.560759
   294   0   1   0.0   -1052.771077   -90.567857   -1360.560759
   295   0   1   0.0   -1355.180878   433.221284   -1360.560759
   296   0   1   0.0   -1657.590680   957.010425   -1360.560759
   297   0   1   0.0   -1052.771077   -1138.146138   -1360.560759
   298   0   1   0.0   -1355.180878   -614.356997   -1360.560759
   299   0   1   0.0   -1657.590680   -90.567857   -1360.560759
   300   0   1   0.0   -1960.000481   433.221284   -1360.560759
   301   0   1   0.0   -1355.180878   -1661.935279   -1360.560759
   302   0   1   0.0   -1657.590680   -1138.146138   -1360.560759
   303   0   1   0.0   -1960.000481   -614.356997   -1360.560759
   304   0   1   0.0   -2262.410282   -90.567857   -1360.560759
   305   0   1   0.0   -447.951474   -90.567857   -1855.310126
   306   0   1   0.0   -750.361275   433.221284   -1855.310126
   307   0   1   0.0   -1052.771077   957.010425   -1855.310126
   308   0   1   0.0   -1355.180878   1480.799566   -1855.310126
   309   0   1   0.0   -750.361275   -614.356997   -1855.310126
   310   0   1   0.0   -1052.771077   -90.567857   -1855.310126
   311   0   1   0.0   -1355.180878   433.221284   -1855.310126
   312   0   1   0.0   -1657.590680   957.010425   -1855.310126
   313   0   1   0.0   -1052.771077   -1138.146138   -1855.310126
   314   0   1   0.0   -1355.180878   -614.356997   -1855.310126
   315   0   1   0.0   -1657.590680   -90.567857   -1855.310126
   316   0   1   0.0   -1960.000481   433.221284   -1855.310126
   317   0   1   0.0   -1355.180878   -1661.935279   -1855.310126
   318   0   1   0.0   -1657.590680   -1138.146138   -1855.310126
   319   0   1   0.0   -1960.000481   -614.356997   -1855.310126
   320   0   1   0.0   -2262.410282   -90.567857   -1855.310126
   321   0   1   0.0   -302.409801   -342.653428   -371.062025
   322   0   1   0.0   -604.819603   181.135713   -371.062025
   323   0   1   0.0   -907.229404   704.924854   -371.062025
   324   0   1   0.0   -1209.639206   1228.713995   -371.062025
   325   0   1   0.0   -604.819603   -866.442568   -371.062025
   326   0   1   0.0   -907.229404   -342.653428   -371.062025
   327   0   1   0.0   -1209.639206   181.135713   -371.062025
   328   0   1   0.0   -1512.049007   704.924854   -371.062025
   329   0   1   0.0   -907.229404   -1390.231709   -371.062025
   330   0   1   0.0   -1209.639206   -866.442568   -371.062025
   331   0   1   0.0   -1512.049007   -342.653428   -371.062025
   332   0   1   0.0   -1814.458809   181.135713   -371.062025
   333   0   1   0.0   -1209.639206   -1914.020850   -371.062025
   334   0   1   0.0   -1512.049007   -1390.231709   -371.062025
   335   0   1   0.0   -1814.458809   -866.442568   -371.062025
   336   0   1   0.0   -2116.868610   -342.653428   -371.062025
   337   0   1   0.0   -302.409801   -342.653428   -865.811392
   338   0   1   0.0   -604.819603   181.135713   -865.811392
   339   0   1   0.0   -907.229404   704.924854   -865.811392
   340   0   1   0.0   -1209.639206   1228.713995   -865.811392
   341   0   1   0.0   -604.819603   -866.442568   -865.811392
   342   0   1   0.0   -907.229404   -342.653428   -865.811392
   343   0   1   0.0   -1209.639206   181.135713   -865.811392
   344   0   1   0.0   -1512.049007   704.924854   -865.811392
   345   0   1   0.0   -907.229404   -1390.231709   -865.811392
   346   0   1   0.0   -1209.639206   -866.442568   -865.811392
   347   0   1   0.0   -1512.049007   -342.653428   -865.811392
   348   0   1   0.0   -1814.458809   181.135713   -865.811392
   349   0   1   0.0   -1209.639206   -1914.020850   -865.811392
   350   0   1   0.0   -1512.049007   -1390.231709   -865.811392
   351   0   1   0.0   -1814.458809   -866.442568   -865.811392
   352   0   1   0.0   -2116.868610   -342.653428   -865.811392
   353   0   1   0.0   -302.409801   -342.653428   -1360.560759
   354   0   1   0.0   -604.819603   181.135713   -1360.560759
   355   0   1   0.0   -907.229404   704.924854   -1360.560759
   356   0   1   0.0   -1209.639206   1228.713995   -1360.560759
   357   0   1   0.0   -604.819603   -866.442568   -1360.560759
   358   0   1   0.0   -907.229404   -342.653428   -1360.560759
   359   0   1   0.0   -1209.639206   181.135713   -1360.560759
   360   0   1   0.0   -1512.049007   704.924854   -1360.560759
   361   0   1   0.0   -907.229404   -1390.231709   -1360.560759
   362   0   1   0.0   -1209.639206   -866.442568   -1360.560759
   363   0   1   0.0   -1512.049007   -342.653428   -1360.560759
   364   0   1   0.0   -1814.458809   181.135713   -1360.560759
   365   0   1   0.0   -1209.639206   -1914.020850   -1360.560759
   366   0   1   0.0   -1512.049007   -1390.231709   -1360.560759
   367   0   1   0.0   -1814.458809   -866.442568   -1360.560759
   368   0   1   0.0   -2116.868610   -342.653428   -1360.560759
   369   0   1   0.0   -302.409801   -342.653428   -1855.310126
   370   0   1   0.0   -604.819603   181.135713   -1855.310126
   371   0   1   0.0   -907.229404   704.924854   -1855.310126
   372   0   1   0.0   -1209.639206   1228.713995   -1855.310126
   373   0   1   0.0   -604.819603   -866.442568   -1855.310126
   374   0   1   0.0   -907.229404   -342.653428   -1855.310126
   375   0   1   0.0   -1209.639206   181.135713   -1855.310126
   376   0   1   0.0   -1512.049007   704.924854   -1855.310126
   377   0   1   0.0   -907.229404   -1390.231709   -1855.310126
   378   0   1   0.0   -1209.639206   -866.442568   -1855.310126
   379   0   1   0.0   -1512.049007   -342.653428   -1855.310126
   380   0   1   0.0   -1814.458809   181.135713   -1855.310126
   381   0   1   0.0   -1209.639206   -1914.020850   -1855.310126
   382   0   1   0.0   -1512.049007   -1390.231709   -1855.310126
   383   0   1   0.0   -1814.458809   -866.442568   -1855.310126
   384   0   1   0.0   -2116.868610   -342.653428   -1855.310126
   385   0   2   0.0   -302.409801   174.596380   -371.062025
   386   0   2   0.0   -604.819603   698.385521   -371.062025
   387   0   2   0.0   -907.229404   1222.174662   -371.062025
   388   0   2   0.0   -1209.639206   1745.963803   -371.062025
   389   0   2   0.0   -604.819603   -349.192761   -371.062025
   390   0   2   0.0   -907.229404   174.596380   -371.062025
   391   0   2   0.0   -1209.639206   698.385521   -371.062025
   392   0   2   0.0   -1512.049007   1222.174662   -371.062025
   393   0   2   0.0   -907.229404   -872.981901   -371.062025
   394   0   2   0.0   -1209.639206   -349.192761   -371.062025
   395   0   2   0.0   -1512.049007   174.596380   -371.062025
   396   0   2   0.0   -1814.458809   698.385521   -371.062025
   397   0   2   0.0   -1209.639206   -1396.771042   -371.062025
   398   0   2   0.0   -1512.049007   -872.981901   -371.062025
   399   0   2   0.0   -1814.458809   -349.192761   -371.062025
   400   0   2   0.0   -2116.868610   174.596380   -371.062025
   401   0   2   0.0   -302.409801   174.596380   -865.811392
   402   0   2   0.0   -604.819603   698.385521   -865.811392
   403   0   2   0.0   -907.229404   1222.174662   -865.811392
   404   0   2   0.0   -1209.639206   1745.963803   -865.811392
   405   0   2   0.0   -604.819603   -349.192761   -865.811392
   406   0   2   0.0   -907.229404   174.596380   -865.811392
   407   0   2   0.0   -1209.639206   698.385521   -865.811392
   408   0   2   0.0   -1512.049007   1222.174662   -865.811392
   409   0   2   0.0   -907.229404   -872.981901   -865.811392
   410   0   2   0.0   -1209.639206   -349.192761   -865.811392
   411   0   2   0.0   -1512.049007   174.596380   -865.811392
   412   0   2   0.0   -1814.458809   698.385521   -865.811392
   413   0   2   0.0   -1209.639206   -1396.771042   -865.811392
   414   0   2   0.0   -1512.049007   -872.981901   -865.811392
   415   0   2   0.0   -1814.458809   -349.192761   -865.811392
   416   0   2   0.0   -2116.868610   174.596380   -865.811392
   417   0   2   0.0   -302.409801   174.596380   -1360.560759
   418   0   2   0.0   -604.819603   698.385521   -1360.560759
   419   0   2   0.0   -907.229404   1222.174662   -1360.560759
   420   0   2   0.0   -1209.639206   1745.963803   -1360.560759
   421   0   2   0.0   -604.819603   -349.192761   -1360.560759
   422   0   2   0.0   -907.229404   174.596380   -1360.560759
   423   0   2   0.0   -1209.639206   698.385521   -1360.560759
   424   0   2   0.0   -1512.049007   1222.174662   -1360.560759
   425   0   2   0.0   -907.229404   -872.981901   -1360.560759
   426   0   2   0.0   -1209.639206   -349.192761   -1360.560759
   427   0   2   0.0   -1512.049007   174.596380   -1360.560759
   428   0   2   0.0   -1814.458809   698.385521   -1360.560759
   429   0   2   0.0   -1209.639206   -1396.771042   -1360.560759
   430   0   2   0.0   -1512.049007   -872.981901   -1360.560759
   431   0   2   0.0   -1814.458809   -349.192761   -1360.560759
   432   0   2   0.0   -2116.868610   174.596380   -1360.560759
   433   0   2   0.0   -302.409801   174.596380   -1855.310126
   434   0   2   0.0   -604.819603   698.385521   -1855.310126
   435   0   2   0.0   -907.229404   1222.174662   -1855.310126
   436   0   2   0.0   -1209.639206   1745.963803   -1855.310126
   437   0   2   0.0   -604.819603   -349.192761   -1855.310126
   438   0   2   0.0   -907.229404   174.596380   -1855.310126
   439   0   2   0.0   -1209.639206   698.385521   -1855.310126
   440   0   2   0.0   -1512.049007   1222.174662   -1855.310126
   441   0   2   0.0   -907.229404   -872.981901   -1855.310126
   442   0   2   0.0   -1209.639206   -349.192761   -1855.310126
   443   0   2   0.0   -1512.049007   174.596380   -1855.310126
   444   0   2   0.0   -1814.458809   698.385521   -1855.310126
   445   0   2   0.0   -1209.639206   -1396.771042   -1855.310126
   446   0   2   0.0   -1512.049007   -872.981901   -1855.310126
   447   0   2   0.0   -1814.458809   -349.192761   -1855.310126
   448   0   2   0.0   -2116.868610   174.596380   -1855.310126
   449   0   2   0.0   -302.409801   -174.596380   -123.687342
   450   0   2   0.0   -604.819603   349.192761   -123.687342
   451   0   2   0.0   -907.229404   872.981901   -123.687342
   452   0   2   0.0   -1209.639206   1396.771042   -123.687342
   453   0   2   0.0   -604.819603   -698.385521   -123.687342
   454   0   2   0.0   -907.229404   -174.596380   -123.687342
   455   0   2   0.0   -1209.639206   349.192761   -123.687342
   456   0   2   0.0   -1512.049007   872.981901   -123.687342
   457   0   2   0.0   -907.229404   -1222.174662   -123.687342
   458   0   2   0.0   -1209.639206   -698.385521   -123.687342
   459   0   2   0.0   -1512.049007   -174.596380   -123.687342
   460   0   2   0.0   -1814.458809   349.192761   -123.687342
   461   0   2   0.0   -1209.639206   -1745.963803   -123.687342
   462   0   2   0.0   -1512.049007   -1222.174662   -123.687342
   463   0   2   0.0   -1814.458809   -698.385521   -123.687342
   464   0   2   0.0   -2116.868610   -174.596380   -123.687342
   465   0   2   0.0   -302.409801   -174.596380   -618.436709
   466   0   2   0.0   -604.819603   349.192761   -618.436709
   467   0   2   0.0   -907.229404   872.981901   -618.436709