(written by ASE)

2 atoms
0 bonds
2  atom types
0  bond types

     0.0    846.3  xlo xhi
     0.0    846.3  ylo yhi
     0.0    846.3 zlo zhi
     0.0 0.0 0.0  xy xz yz

Atoms # full

     1   0   1   0.0 0.0 0.0 0.0
     2   0   2   0.0 0.0 273.0 0.0

Bonds
    
