(written by ASE)

756 atoms
0 bonds
2 atom types
0 bond types

0.0 3134.401043 xlo xhi
0.0 3134.401043 ylo yhi
0.0 3134.401043 zlo zhi
0.0 0.0 0.0 xy xz yz

Atoms # full

     1   0   1   0.0   66.598957   66.598957   66.598957
     2   0   1   0.0   66.598957   66.598957   918.598957
     3   0   1   0.0   66.598957   66.598957   1770.598957
     4   0   1   0.0   66.598957   918.598957   66.598957
     5   0   1   0.0   66.598957   918.598957   918.598957
     6   0   1   0.0   66.598957   918.598957   1770.598957
     7   0   1   0.0   66.598957   1770.598957   66.598957
     8   0   1   0.0   66.598957   1770.598957   918.598957
     9   0   1   0.0   66.598957   1770.598957   1770.598957
    10   0   1   0.0   918.598957   66.598957   66.598957
    11   0   1   0.0   918.598957   66.598957   918.598957
    12   0   1   0.0   918.598957   66.598957   1770.598957
    13   0   1   0.0   918.598957   918.598957   66.598957
    14   0   1   0.0   918.598957   918.598957   918.598957
    15   0   1   0.0   918.598957   918.598957   1770.598957
    16   0   1   0.0   918.598957   1770.598957   66.598957
    17   0   1   0.0   918.598957   1770.598957   918.598957
    18   0   1   0.0   918.598957   1770.598957   1770.598957
    19   0   1   0.0   1770.598957   66.598957   66.598957
    20   0   1   0.0   1770.598957   66.598957   918.598957
    21   0   1   0.0   1770.598957   66.598957   1770.598957
    22   0   1   0.0   1770.598957   918.598957   66.598957
    23   0   1   0.0   1770.598957   918.598957   918.598957
    24   0   1   0.0   1770.598957   918.598957   1770.598957
    25   0   1   0.0   1770.598957   1770.598957   66.598957
    26   0   1   0.0   1770.598957   1770.598957   918.598957
    27   0   1   0.0   1770.598957   1770.598957   1770.598957
    28   0   1   0.0   279.598957   279.598957   279.598957
    29   0   1   0.0   279.598957   279.598957   1131.598957
    30   0   1   0.0   279.598957   279.598957   1983.598957
    31   0   1   0.0   279.598957   1131.598957   279.598957
    32   0   1   0.0   279.598957   1131.598957   1131.598957
    33   0   1   0.0   279.598957   1131.598957   1983.598957
    34   0   1   0.0   279.598957   1983.598957   279.598957
    35   0   1   0.0   279.598957   1983.598957   1131.598957
    36   0   1   0.0   279.598957   1983.598957   1983.598957
    37   0   1   0.0   1131.598957   279.598957   279.598957
    38   0   1   0.0   1131.598957   279.598957   1131.598957
    39   0   1   0.0   1131.598957   279.598957   1983.598957
    40   0   1   0.0   1131.598957   1131.598957   279.598957
    41   0   1   0.0   1131.598957   1131.598957   1131.598957
    42   0   1   0.0   1131.598957   1131.598957   1983.598957
    43   0   1   0.0   1131.598957   1983.598957   279.598957
    44   0   1   0.0   1131.598957   1983.598957   1131.598957
    45   0   1   0.0   1131.598957   1983.598957   1983.598957
    46   0   1   0.0   1983.598957   279.598957   279.598957
    47   0   1   0.0   1983.598957   279.598957   1131.598957
    48   0   1   0.0   1983.598957   279.598957   1983.598957
    49   0   1   0.0   1983.598957   1131.598957   279.598957
    50   0   1   0.0   1983.598957   1131.598957   1131.598957
    51   0   1   0.0   1983.598957   1131.598957   1983.598957
    52   0   1   0.0   1983.598957   1983.598957   279.598957
    53   0   1   0.0   1983.598957   1983.598957   1131.598957
    54   0   1   0.0   1983.598957   1983.598957   1983.598957
    55   0   1   0.0   572.401043   146.401043   279.598957
    56   0   1   0.0   572.401043   146.401043   1131.598957
    57   0   1   0.0   572.401043   146.401043   1983.598957
    58   0   1   0.0   572.401043   998.401043   279.598957
    59   0   1   0.0   572.401043   998.401043   1131.598957
    60   0   1   0.0   572.401043   998.401043   1983.598957
    61   0   1   0.0   572.401043   1850.401043   279.598957
    62   0   1   0.0   572.401043   1850.401043   1131.598957
    63   0   1   0.0   572.401043   1850.401043   1983.598957
    64   0   1   0.0   1424.401043   146.401043   279.598957
    65   0   1   0.0   1424.401043   146.401043   1131.598957
    66   0   1   0.0   1424.401043   146.401043   1983.598957
    67   0   1   0.0   1424.401043   998.401043   279.598957
    68   0   1   0.0   1424.401043   998.401043   1131.598957
    69   0   1   0.0   1424.401043   998.401043   1983.598957
    70   0   1   0.0   1424.401043   1850.401043   279.598957
    71   0   1   0.0   1424.401043   1850.401043   1131.598957
    72   0   1   0.0   1424.401043   1850.401043   1983.598957
    73   0   1   0.0   2276.401043   146.401043   279.598957
    74   0   1   0.0   2276.401043   146.401043   1131.598957
    75   0   1   0.0   2276.401043   146.401043   1983.598957
    76   0   1   0.0   2276.401043   998.401043   279.598957
    77   0   1   0.0   2276.401043   998.401043   1131.598957
    78   0   1   0.0   2276.401043   998.401043   1983.598957
    79   0   1   0.0   2276.401043   1850.401043   279.598957
    80   0   1   0.0   2276.401043   1850.401043   1131.598957
    81   0   1   0.0   2276.401043   1850.401043   1983.598957
    82   0   1   0.0   146.401043   279.598957   572.401043
    83   0   1   0.0   146.401043   279.598957   1424.401043
    84   0   1   0.0   146.401043   279.598957   2276.401043
    85   0   1   0.0   146.401043   1131.598957   572.401043
    86   0   1   0.0   146.401043   1131.598957   1424.401043
    87   0   1   0.0   146.401043   1131.598957   2276.401043
    88   0   1   0.0   146.401043   1983.598957   572.401043
    89   0   1   0.0   146.401043   1983.598957   1424.401043
    90   0   1   0.0   146.401043   1983.598957   2276.401043
    91   0   1   0.0   998.401043   279.598957   572.401043
    92   0   1   0.0   998.401043   279.598957   1424.401043
    93   0   1   0.0   998.401043   279.598957   2276.401043
    94   0   1   0.0   998.401043   1131.598957   572.401043
    95   0   1   0.0   998.401043   1131.598957   1424.401043
    96   0   1   0.0   998.401043   1131.598957   2276.401043
    97   0   1   0.0   998.401043   1983.598957   572.401043
    98   0   1   0.0   998.401043   1983.598957   1424.401043
    99   0   1   0.0   998.401043   1983.598957   2276.401043
   100   0   1   0.0   1850.401043   279.598957   572.401043
   101   0   1   0.0   1850.401043   279.598957   1424.401043
   102   0   1   0.0   1850.401043   279.598957   2276.401043
   103   0   1   0.0   1850.401043   1131.598957   572.401043
   104   0   1   0.0   1850.401043   1131.598957   1424.401043
   105   0   1   0.0   1850.401043   1131.598957   2276.401043
   106   0   1   0.0   1850.401043   1983.598957   572.401043
   107   0   1   0.0   1850.401043   1983.598957   1424.401043
   108   0   1   0.0   1850.401043   1983.598957   2276.401043
   109   0   1   0.0   359.401043   66.598957   785.401043
   110   0   1   0.0   359.401043   66.598957   1637.401043
   111   0   1   0.0   359.401043   66.598957   2489.401043
   112   0   1   0.0   359.401043   918.598957   785.401043
   113   0   1   0.0   359.401043   918.598957   1637.401043
   114   0   1   0.0   359.401043   918.598957   2489.401043
   115   0   1   0.0   359.401043   1770.598957   785.401043
   116   0   1   0.0   359.401043   1770.598957   1637.401043
   117   0   1   0.0   359.401043   1770.598957   2489.401043
   118   0   1   0.0   1211.401043   66.598957   785.401043
   119   0   1   0.0   1211.401043   66.598957   1637.401043
   120   0   1   0.0   1211.401043   66.598957   2489.401043
   121   0   1   0.0   1211.401043   918.598957   785.401043
   122   0   1   0.0   1211.401043   918.598957   1637.401043
   123   0   1   0.0   1211.401043   918.598957   2489.401043
   124   0   1   0.0   1211.401043   1770.598957   785.401043
   125   0   1   0.0   1211.401043   1770.598957   1637.401043
   126   0   1   0.0   1211.401043   1770.598957   2489.401043
   127   0   1   0.0   2063.401043   66.598957   785.401043
   128   0   1   0.0   2063.401043   66.598957   1637.401043
   129   0   1   0.0   2063.401043   66.598957   2489.401043
   130   0   1   0.0   2063.401043   918.598957   785.401043
   131   0   1   0.0   2063.401043   918.598957   1637.401043
   132   0   1   0.0   2063.401043   918.598957   2489.401043
   133   0   1   0.0   2063.401043   1770.598957   785.401043
   134   0   1   0.0   2063.401043   1770.598957   1637.401043
   135   0   1   0.0   2063.401043   1770.598957   2489.401043
   136   0   1   0.0   66.598957   785.401043   359.401043
   137   0   1   0.0   66.598957   785.401043   1211.401043
   138   0   1   0.0   66.598957   785.401043   2063.401043
   139   0   1   0.0   66.598957   1637.401043   359.401043
   140   0   1   0.0   66.598957   1637.401043   1211.401043
   141   0   1   0.0   66.598957   1637.401043   2063.401043
   142   0   1   0.0   66.598957   2489.401043   359.401043
   143   0   1   0.0   66.598957   2489.401043   1211.401043
   144   0   1   0.0   66.598957   2489.401043   2063.401043
   145   0   1   0.0   918.598957   785.401043   359.401043
   146   0   1   0.0   918.598957   785.401043   1211.401043
   147   0   1   0.0   918.598957   785.401043   2063.401043
   148   0   1   0.0   918.598957   1637.401043   359.401043
   149   0   1   0.0   918.598957   1637.401043   1211.401043
   150   0   1   0.0   918.598957   1637.401043   2063.401043
   151   0   1   0.0   918.598957   2489.401043   359.401043
   152   0   1   0.0   918.598957   2489.401043   1211.401043
   153   0   1   0.0   918.598957   2489.401043   2063.401043
   154   0   1   0.0   1770.598957   785.401043   359.401043
   155   0   1   0.0   1770.598957   785.401043   1211.401043
   156   0   1   0.0   1770.598957   785.401043   2063.401043
   157   0   1   0.0   1770.598957   1637.401043   359.401043
   158   0   1   0.0   1770.598957   1637.401043   1211.401043
   159   0   1   0.0   1770.598957   1637.401043   2063.401043
   160   0   1   0.0   1770.598957   2489.401043   359.401043
   161   0   1   0.0   1770.598957   2489.401043   1211.401043
   162   0   1   0.0   1770.598957   2489.401043   2063.401043
   163   0   1   0.0   279.598957   572.401043   146.401043
   164   0   1   0.0   279.598957   572.401043   998.401043
   165   0   1   0.0   279.598957   572.401043   1850.401043
   166   0   1   0.0   279.598957   1424.401043   146.401043
   167   0   1   0.0   279.598957   1424.401043   998.401043
   168   0   1   0.0   279.598957   1424.401043   1850.401043
   169   0   1   0.0   279.598957   2276.401043   146.401043
   170   0   1   0.0   279.598957   2276.401043   998.401043
   171   0   1   0.0   279.598957   2276.401043   1850.401043
   172   0   1   0.0   1131.598957   572.401043   146.401043
   173   0   1   0.0   1131.598957   572.401043   998.401043
   174   0   1   0.0   1131.598957   572.401043   1850.401043
   175   0   1   0.0   1131.598957   1424.401043   146.401043
   176   0   1   0.0   1131.598957   1424.401043   998.401043
   177   0   1   0.0   1131.598957   1424.401043   1850.401043
   178   0   1   0.0   1131.598957   2276.401043   146.401043
   179   0   1   0.0   1131.598957   2276.401043   998.401043
   180   0   1   0.0   1131.598957   2276.401043   1850.401043
   181   0   1   0.0   1983.598957   572.401043   146.401043
   182   0   1   0.0   1983.598957   572.401043   998.401043
   183   0   1   0.0   1983.598957   572.401043   1850.401043
   184   0   1   0.0   1983.598957   1424.401043   146.401043
   185   0   1   0.0   1983.598957   1424.401043   998.401043
   186   0   1   0.0   1983.598957   1424.401043   1850.401043
   187   0   1   0.0   1983.598957   2276.401043   146.401043
   188   0   1   0.0   1983.598957   2276.401043   998.401043
   189   0   1   0.0   1983.598957   2276.401043   1850.401043
   190   0   1   0.0   572.401043   705.598957   146.401043
   191   0   1   0.0   572.401043   705.598957   998.401043
   192   0   1   0.0   572.401043   705.598957   1850.401043
   193   0   1   0.0   572.401043   1557.598957   146.401043
   194   0   1   0.0   572.401043   1557.598957   998.401043
   195   0   1   0.0   572.401043   1557.598957   1850.401043
   196   0   1   0.0   572.401043   2409.598957   146.401043
   197   0   1   0.0   572.401043   2409.598957   998.401043
   198   0   1   0.0   572.401043   2409.598957   1850.401043
   199   0   1   0.0   1424.401043   705.598957   146.401043
   200   0   1   0.0   1424.401043   705.598957   998.401043
   201   0   1   0.0   1424.401043   705.598957   1850.401043
   202   0   1   0.0   1424.401043   1557.598957   146.401043
   203   0   1   0.0   1424.401043   1557.598957   998.401043
   204   0   1   0.0   1424.401043   1557.598957   1850.401043
   205   0   1   0.0   1424.401043   2409.598957   146.401043
   206   0   1   0.0   1424.401043   2409.598957   998.401043
   207   0   1   0.0   1424.401043   2409.598957   1850.401043
   208   0   1   0.0   2276.401043   705.598957   146.401043
   209   0   1   0.0   2276.401043   705.598957   998.401043
   210   0   1   0.0   2276.401043   705.598957   1850.401043
   211   0   1   0.0   2276.401043   1557.598957   146.401043
   212   0   1   0.0   2276.401043   1557.598957   998.401043
   213   0   1   0.0   2276.401043   1557.598957   1850.401043
   214   0   1   0.0   2276.401043   2409.598957   146.401043
   215   0   1   0.0   2276.401043   2409.598957   998.401043
   216   0   1   0.0   2276.401043   2409.598957   1850.401043
   217   0   1   0.0   359.401043   785.401043   492.598957
   218   0   1   0.0   359.401043   785.401043   1344.598957
   219   0   1   0.0   359.401043   785.401043   2196.598957
   220   0   1   0.0   359.401043   1637.401043   492.598957
   221   0   1   0.0   359.401043   1637.401043   1344.598957
   222   0   1   0.0   359.401043   1637.401043   2196.598957
   223   0   1   0.0   359.401043   2489.401043   492.598957
   224   0   1   0.0   359.401043   2489.401043   1344.598957
   225   0   1   0.0   359.401043   2489.401043   2196.598957
   226   0   1   0.0   1211.401043   785.401043   492.598957
   227   0   1   0.0   1211.401043   785.401043   1344.598957
   228   0   1   0.0   1211.401043   785.401043   2196.598957
   229   0   1   0.0   1211.401043   1637.401043   492.598957
   230   0   1   0.0   1211.401043   1637.401043   1344.598957
   231   0   1   0.0   1211.401043   1637.401043   2196.598957
   232   0   1   0.0   1211.401043   2489.401043   492.598957
   233   0   1   0.0   1211.401043   2489.401043   1344.598957
   234   0   1   0.0   1211.401043   2489.401043   2196.598957
   235   0   1   0.0   2063.401043   785.401043   492.598957
   236   0   1   0.0   2063.401043   785.401043   1344.598957
   237   0   1   0.0   2063.401043   785.401043   2196.598957
   238   0   1   0.0   2063.401043   1637.401043   492.598957
   239   0   1   0.0   2063.401043   1637.401043   1344.598957
   240   0   1   0.0   2063.401043   1637.401043   2196.598957
   241   0   1   0.0   2063.401043   2489.401043   492.598957
   242   0   1   0.0   2063.401043   2489.401043   1344.598957
   243   0   1   0.0   2063.401043   2489.401043   2196.598957
   244   0   1   0.0   146.401043   572.401043   705.598957
   245   0   1   0.0   146.401043   572.401043   1557.598957
   246   0   1   0.0   146.401043   572.401043   2409.598957
   247   0   1   0.0   146.401043   1424.401043   705.598957
   248   0   1   0.0   146.401043   1424.401043   1557.598957
   249   0   1   0.0   146.401043   1424.401043   2409.598957
   250   0   1   0.0   146.401043   2276.401043   705.598957
   251   0   1   0.0   146.401043   2276.401043   1557.598957
   252   0   1   0.0   146.401043   2276.401043   2409.598957
   253   0   1   0.0   998.401043   572.401043   705.598957
   254   0   1   0.0   998.401043   572.401043   1557.598957
   255   0   1   0.0   998.401043   572.401043   2409.598957
   256   0   1   0.0   998.401043   1424.401043   705.598957
   257   0   1   0.0   998.401043   1424.401043   1557.598957
   258   0   1   0.0   998.401043   1424.401043   2409.598957
   259   0   1   0.0   998.401043   2276.401043   705.598957
   260   0   1   0.0   998.401043   2276.401043   1557.598957
   261   0   1   0.0   998.401043   2276.401043   2409.598957
   262   0   1   0.0   1850.401043   572.401043   705.598957
   263   0   1   0.0   1850.401043   572.401043   1557.598957
   264   0   1   0.0   1850.401043   572.401043   2409.598957
   265   0   1   0.0   1850.401043   1424.401043   705.598957
   266   0   1   0.0   1850.401043   1424.401043   1557.598957
   267   0   1   0.0   1850.401043   1424.401043   2409.598957
   268   0   1   0.0   1850.401043   2276.401043   705.598957
   269   0   1   0.0   1850.401043   2276.401043   1557.598957
   270   0   1   0.0   1850.401043   2276.401043   2409.598957
   271   0   1   0.0   785.401043   359.401043   66.598957
   272   0   1   0.0   785.401043   359.401043   918.598957
   273   0   1   0.0   785.401043   359.401043   1770.598957
   274   0   1   0.0   785.401043   1211.401043   66.598957
   275   0   1   0.0   785.401043   1211.401043   918.598957
   276   0   1   0.0   785.401043   1211.401043   1770.598957
   277   0   1   0.0   785.401043   2063.401043   66.598957
   278   0   1   0.0   785.401043   2063.401043   918.598957
   279   0   1   0.0   785.401043   2063.401043   1770.598957
   280   0   1   0.0   1637.401043   359.401043   66.598957
   281   0   1   0.0   1637.401043   359.401043   918.598957
   282   0   1   0.0   1637.401043   359.401043   1770.598957
   283   0   1   0.0   1637.401043   1211.401043   66.598957
   284   0   1   0.0   1637.401043   1211.401043   918.598957
   285   0   1   0.0   1637.401043   1211.401043   1770.598957
   286   0   1   0.0   1637.401043   2063.401043   66.598957
   287   0   1   0.0   1637.401043   2063.401043   918.598957
   288   0   1   0.0   1637.401043   2063.401043   1770.598957
   289   0   1   0.0   2489.401043   359.401043   66.598957
   290   0   1   0.0   2489.401043   359.401043   918.598957
   291   0   1   0.0   2489.401043   359.401043   1770.598957
   292   0   1   0.0   2489.401043   1211.401043   66.598957
   293   0   1   0.0   2489.401043   1211.401043   918.598957
   294   0   1   0.0   2489.401043   1211.401043   1770.598957
   295   0   1   0.0   2489.401043   2063.401043   66.598957
   296   0   1   0.0   2489.401043   2063.401043   918.598957
   297   0   1   0.0   2489.401043   2063.401043   1770.598957
   298   0   1   0.0   785.401043   492.598957   359.401043
   299   0   1   0.0   785.401043   492.598957   1211.401043
   300   0   1   0.0   785.401043   492.598957   2063.401043
   301   0   1   0.0   785.401043   1344.598957   359.401043
   302   0   1   0.0   785.401043   1344.598957   1211.401043
   303   0   1   0.0   785.401043   1344.598957   2063.401043
   304   0   1   0.0   785.401043   2196.598957   359.401043
   305   0   1   0.0   785.401043   2196.598957   1211.401043
   306   0   1   0.0   785.401043   2196.598957   2063.401043
   307   0   1   0.0   1637.401043   492.598957   359.401043
   308   0   1   0.0   1637.401043   492.598957   1211.401043
   309   0   1   0.0   1637.401043   492.598957   2063.401043
   310   0   1   0.0   1637.401043   1344.598957   359.401043
   311   0   1   0.0   1637.401043   1344.598957   1211.401043
   312   0   1   0.0   1637.401043   1344.598957   2063.401043
   313   0   1   0.0   1637.401043   2196.598957   359.401043
   314   0   1   0.0   1637.401043   2196.598957   1211.401043
   315   0   1   0.0   1637.401043   2196.598957   2063.401043
   316   0   1   0.0   2489.401043   492.598957   359.401043
   317   0   1   0.0   2489.401043   492.598957   1211.401043
   318   0   1   0.0   2489.401043   492.598957   2063.401043
   319   0   1   0.0   2489.401043   1344.598957   359.401043
   320   0   1   0.0   2489.401043   1344.598957   1211.401043
   321   0   1   0.0   2489.401043   1344.598957   2063.401043
   322   0   1   0.0   2489.401043   2196.598957   359.401043
   323   0   1   0.0   2489.401043   2196.598957   1211.401043
   324   0   1   0.0   2489.401043   2196.598957   2063.401043
   325   0   1   0.0   705.598957   146.401043   572.401043
   326   0   1   0.0   705.598957   146.401043   1424.401043
   327   0   1   0.0   705.598957   146.401043   2276.401043
   328   0   1   0.0   705.598957   998.401043   572.401043
   329   0   1   0.0   705.598957   998.401043   1424.401043
   330   0   1   0.0   705.598957   998.401043   2276.401043
   331   0   1   0.0   705.598957   1850.401043   572.401043
   332   0   1   0.0   705.598957   1850.401043   1424.401043
   333   0   1   0.0   705.598957   1850.401043   2276.401043
   334   0   1   0.0   1557.598957   146.401043   572.401043
   335   0   1   0.0   1557.598957   146.401043   1424.401043
   336   0   1   0.0   1557.598957   146.401043   2276.401043
   337   0   1   0.0   1557.598957   998.401043   572.401043
   338   0   1   0.0   1557.598957   998.401043   1424.401043
   339   0   1   0.0   1557.598957   998.401043   2276.401043
   340   0   1   0.0   1557.598957   1850.401043   572.401043
   341   0   1   0.0   1557.598957   1850.401043   1424.401043
   342   0   1   0.0   1557.598957   1850.401043   2276.401043
   343   0   1   0.0   2409.598957   146.401043   572.401043
   344   0   1   0.0   2409.598957   146.401043   1424.401043
   345   0   1   0.0   2409.598957   146.401043   2276.401043
   346   0   1   0.0   2409.598957   998.401043   572.401043
   347   0   1   0.0   2409.598957   998.401043   1424.401043
   348   0   1   0.0   2409.598957   998.401043   2276.401043
   349   0   1   0.0   2409.598957   1850.401043   572.401043
   350   0   1   0.0   2409.598957   1850.401043   1424.401043
   351   0   1   0.0   2409.598957   1850.401043   2276.401043
   352   0   1   0.0   705.598957   705.598957   705.598957
   353   0   1   0.0   705.598957   705.598957   1557.598957
   354   0   1   0.0   705.598957   705.598957   2409.598957
   355   0   1   0.0   705.598957   1557.598957   705.598957
   356   0   1   0.0   705.598957   1557.598957   1557.598957
   357   0   1   0.0   705.598957   1557.598957   2409.598957
   358   0   1   0.0   705.598957   2409.598957   705.598957
   359   0   1   0.0   705.598957   2409.598957   1557.598957
   360   0   1   0.0   705.598957   2409.598957   2409.598957
   361   0   1   0.0   1557.598957   705.598957   705.598957
   362   0   1   0.0   1557.598957   705.598957   1557.598957
   363   0   1   0.0   1557.598957   705.598957   2409.598957
   364   0   1   0.0   1557.598957   1557.598957   705.598957
   365   0   1   0.0   1557.598957   1557.598957   1557.598957
   366   0   1   0.0   1557.598957   1557.598957   2409.598957
   367   0   1   0.0   1557.598957   2409.598957   705.598957
   368   0   1   0.0   1557.598957   2409.598957   1557.598957
   369   0   1   0.0   1557.598957   2409.598957   2409.598957
   370   0   1   0.0   2409.598957   705.598957   705.598957
   371   0   1   0.0   2409.598957   705.598957   1557.598957
   372   0   1   0.0   2409.598957   705.598957   2409.598957
   373   0   1   0.0   2409.598957   1557.598957   705.598957
   374   0   1   0.0   2409.598957   1557.598957   1557.598957
   375   0   1   0.0   2409.598957   1557.598957   2409.598957
   376   0   1   0.0   2409.598957   2409.598957   705.598957
   377   0   1   0.0   2409.598957   2409.598957   1557.598957
   378   0   1   0.0   2409.598957   2409.598957   2409.598957
   379   0   1   0.0   492.598957   359.401043   785.401043
   380   0   1   0.0   492.598957   359.401043   1637.401043
   381   0   1   0.0   492.598957   359.401043   2489.401043
   382   0   1   0.0   492.598957   1211.401043   785.401043
   383   0   1   0.0   492.598957   1211.401043   1637.401043
   384   0   1   0.0   492.598957   1211.401043   2489.401043
   385   0   1   0.0   492.598957   2063.401043   785.401043
   386   0   1   0.0   492.598957   2063.401043   1637.401043
   387   0   1   0.0   492.598957   2063.401043   2489.401043
   388   0   1   0.0   1344.598957   359.401043   785.401043
   389   0   1   0.0   1344.598957   359.401043   1637.401043
   390   0   1   0.0   1344.598957   359.401043   2489.401043
   391   0   1   0.0   1344.598957   1211.401043   785.401043
   392   0   1   0.0   1344.598957   1211.401043   1637.401043
   393   0   1   0.0   1344.598957   1211.401043   2489.401043
   394   0   1   0.0   1344.598957   2063.401043   785.401043
   395   0   1   0.0   1344.598957   2063.401043   1637.401043
   396   0   1   0.0   1344.598957   2063.401043   2489.401043
   397   0   1   0.0   2196.598957   359.401043   785.401043
   398   0   1   0.0   2196.598957   359.401043   1637.401043
   399   0   1   0.0   2196.598957   359.401043   2489.401043
   400   0   1   0.0   2196.598957   1211.401043   785.401043
   401   0   1   0.0   2196.598957   1211.401043   1637.401043
   402   0   1   0.0   2196.598957   1211.401043   2489.401043
   403   0   1   0.0   2196.598957   2063.401043   785.401043
   404   0   1   0.0   2196.598957   2063.401043   1637.401043
   405   0   1   0.0   2196.598957   2063.401043   2489.401043
   406   0   1   0.0   492.598957   492.598957   492.598957
   407   0   1   0.0   492.598957   492.598957   1344.598957
   408   0   1   0.0   492.598957   492.598957   2196.598957
   409   0   1   0.0   492.598957   1344.598957   492.598957
   410   0   1   0.0   492.598957   1344.598957   1344.598957
   411   0   1   0.0   492.598957   1344.598957   2196.598957
   412   0   1   0.0   492.598957   2196.598957   492.598957
   413   0   1   0.0   492.598957   2196.598957   1344.598957
   414   0   1   0.0   492.598957   2196.598957   2196.598957
   415   0   1   0.0   1344.598957   492.598957   492.598957
   416   0   1   0.0   1344.598957   492.598957   1344.598957
   417   0   1   0.0   1344.598957   492.598957   2196.598957
   418   0   1   0.0   1344.598957   1344.598957   492.598957
   419   0   1   0.0   1344.598957   1344.598957   1344.598957
   420   0   1   0.0   1344.598957   1344.598957   2196.598957
   421   0   1   0.0   1344.598957   2196.598957   492.598957
   422   0   1   0.0   1344.598957   2196.598957   1344.598957
   423   0   1   0.0   1344.598957   2196.598957   2196.598957
   424   0   1   0.0   2196.598957   492.598957   492.598957
   425   0   1   0.0   2196.598957   492.598957   1344.598957
   426   0   1   0.0   2196.598957   492.598957   2196.598957
   427   0   1   0.0   2196.598957   1344.598957   492.598957
   428   0   1   0.0   2196.598957   1344.598957   1344.598957
   429   0   1   0.0   2196.598957   1344.598957   2196.598957
   430   0   1   0.0   2196.598957   2196.598957   492.598957
   431   0   1   0.0   2196.598957   2196.598957   1344.598957
   432   0   1   0.0   2196.598957   2196.598957   2196.598957
   433   0   2   0.0   0.000000   213.000000   319.500000
   434   0   2   0.0   0.000000   213.000000   1171.500000
   435   0   2   0.0   0.000000   213.000000   2023.500000
   436   0   2   0.0   0.000000   1065.000000   319.500000
   437   0   2   0.0   0.000000   1065.000000   1171.500000
   438   0   2   0.0   0.000000   1065.000000   2023.500000
   439   0   2   0.0   0.000000   1917.000000   319.500000
   440   0   2   0.0   0.000000   1917.000000   1171.500000
   441   0   2   0.0   0.000000   1917.000000   2023.500000
   442   0   2   0.0   852.000000   213.000000   319.500000
   443   0   2   0.0   852.000000   213.000000   1171.500000
   444   0   2   0.0   852.000000   213.000000   2023.500000
   445   0   2   0.0   852.000000   1065.000000   319.500000
   446   0   2   0.0   852.000000   1065.000000   1171.500000
   447   0   2   0.0   852.000000   1065.000000   2023.500000
   448   0   2   0.0   852.000000   1917.000000   319.500000
   449   0   2   0.0   852.000000   1917.000000   1171.500000
   450   0   2   0.0   852.000000   1917.000000   2023.500000
   451   0   2   0.0   1704.000000   213.000000   319.500000
   452   0   2   0.0   1704.000000   213.000000   1171.500000
   453   0   2   0.0   1704.000000   213.000000   2023.500000
   454   0   2   0.0   1704.000000   1065.000000   319.500000
   455   0   2   0.0   1704.000000   1065.000000   1171.500000
   456   0   2   0.0   1704.000000   1065.000000   2023.500000
   457   0   2   0.0   1704.000000   1917.000000   319.500000
   458   0   2   0.0   1704.000000   1917.000000   1171.500000
   459   0   2   0.0   1704.000000   1917.000000   2023.500000
   460   0   2   0.0   319.500000   0.000000   213.000000
   461   0   2   0.0   319.500000   0.000000   1065.000000
   462   0   2   0.0   319.500000   0.000000   1917.000000
   463   0   2   0.0   319.500000   852.000000   213.000000
   464   0   2   0.0   319.500000   852.000000   1065.000000
   465   0   2   0.0   319.500000   852.000000   1917.000000
   466   0   2   0.0   319.500000   1704.000000   213.000000
   467   0   2   0.0   319.500000   1704.000000   1065.000000
   468   0   2   0.0   319.500000   1704.000000   1917.000000
   469   0   2   0.0   1171.500000   0.000000   213.000000
   470   0   2   0.0   1171.500000   0.000000   1065.000000
   471   0   2   0.0   1171.500000   0.000000   1917.000000
   472   0   2   0.0   1171.500000   852.000000   213.000000
   473   0   2   0.0   1171.500000   852.000000   1065.000000
   474   0   2   0.0   1171.500000   852.000000   1917.000000
   475   0   2   0.0   1171.500000   1704.000000   213.000000
   476   0   2   0.0   1171.500000   1704.000000   1065.000000
   477   0   2   0.0   1171.500000   1704.000000   1917.000000
   478   0   2   0.0   2023.500000   0.000000   213.000000
   479   0   2   0.0   2023.500000   0.000000   1065.000000
   480   0   2   0.0   2023.500000   0.000000   1917.000000
   481   0   2   0.0   2023.500000   852.000000   213.000000
   482   0   2   0.0   2023.500000   852.000000   1065.000000
   483   0   2   0.0   2023.500000   852.000000   1917.000000
   484   0   2   0.0   2023.500000   1704.000000   213.000000