(written by ASE)

1 atoms
0 bonds
1  atom types
0  bond types

0.0    1200  xlo xhi
0.0    1200  ylo yhi
0.0    1200  zlo zhi
     0.0 0.0 0.0  xy xz yz

Atoms # full

     1   0   1   0.0  0   0   0

Bonds
    
