(written by ASE)

3 atoms
3 bonds
1  atom types
1  bond types

0.0    1200  xlo xhi
0.0    1200  ylo yhi
0.0    1200  zlo zhi
     0.0 0.0 0.0  xy xz yz

Atoms # full

     1   0   1   0.0  0   0    0
     2   0   1   0.0  0   0    500
     3   0   1   0.0  0   433.012701892    250

Bonds
    
     1   0   1    2
     2   0   1    3
     3   0   2    3