(written by ASE)

432 atoms
0 bonds
2 atom types
0 bond types

0.0 2493.134750 xlo xhi
0.0 2493.134750 ylo yhi
0.0 2493.134750 zlo zhi
0.0 0.0 0.0 xy xz yz

Atoms # full

     1   0   1   0.0   0.000000   0.000000   0.000000
     2   0   1   0.0   0.000000   0.000000   336.024500
     3   0   1   0.0   0.000000   0.000000   672.049000
     4   0   1   0.0   0.000000   0.000000   1008.073500
     5   0   1   0.0   0.000000   0.000000   1344.098000
     6   0   1   0.0   0.000000   0.000000   1680.122500
     7   0   1   0.0   -0.000000   336.024500   0.000000
     8   0   1   0.0   -0.000000   336.024500   336.024500
     9   0   1   0.0   -0.000000   336.024500   672.049000
    10   0   1   0.0   -0.000000   336.024500   1008.073500
    11   0   1   0.0   -0.000000   336.024500   1344.098000
    12   0   1   0.0   -0.000000   336.024500   1680.122500
    13   0   1   0.0   -0.000000   672.049000   0.000000
    14   0   1   0.0   -0.000000   672.049000   336.024500
    15   0   1   0.0   -0.000000   672.049000   672.049000
    16   0   1   0.0   -0.000000   672.049000   1008.073500
    17   0   1   0.0   -0.000000   672.049000   1344.098000
    18   0   1   0.0   -0.000000   672.049000   1680.122500
    19   0   1   0.0   -0.000000   1008.073500   0.000000
    20   0   1   0.0   -0.000000   1008.073500   336.024500
    21   0   1   0.0   -0.000000   1008.073500   672.049000
    22   0   1   0.0   -0.000000   1008.073500   1008.073500
    23   0   1   0.0   -0.000000   1008.073500   1344.098000
    24   0   1   0.0   -0.000000   1008.073500   1680.122500
    25   0   1   0.0   -0.000000   1344.098000   0.000000
    26   0   1   0.0   -0.000000   1344.098000   336.024500
    27   0   1   0.0   -0.000000   1344.098000   672.049000
    28   0   1   0.0   -0.000000   1344.098000   1008.073500
    29   0   1   0.0   -0.000000   1344.098000   1344.098000
    30   0   1   0.0   -0.000000   1344.098000   1680.122500
    31   0   1   0.0   -0.000000   1680.122500   0.000000
    32   0   1   0.0   -0.000000   1680.122500   336.024500
    33   0   1   0.0   -0.000000   1680.122500   672.049000
    34   0   1   0.0   -0.000000   1680.122500   1008.073500
    35   0   1   0.0   -0.000000   1680.122500   1344.098000
    36   0   1   0.0   -0.000000   1680.122500   1680.122500
    37   0   1   0.0   336.024500   0.000000   0.000000
    38   0   1   0.0   336.024500   0.000000   336.024500
    39   0   1   0.0   336.024500   0.000000   672.049000
    40   0   1   0.0   336.024500   0.000000   1008.073500
    41   0   1   0.0   336.024500   0.000000   1344.098000
    42   0   1   0.0   336.024500   0.000000   1680.122500
    43   0   1   0.0   336.024500   336.024500   0.000000
    44   0   1   0.0   336.024500   336.024500   336.024500
    45   0   1   0.0   336.024500   336.024500   672.049000
    46   0   1   0.0   336.024500   336.024500   1008.073500
    47   0   1   0.0   336.024500   336.024500   1344.098000
    48   0   1   0.0   336.024500   336.024500   1680.122500
    49   0   1   0.0   336.024500   672.049000   0.000000
    50   0   1   0.0   336.024500   672.049000   336.024500
    51   0   1   0.0   336.024500   672.049000   672.049000
    52   0   1   0.0   336.024500   672.049000   1008.073500
    53   0   1   0.0   336.024500   672.049000   1344.098000
    54   0   1   0.0   336.024500   672.049000   1680.122500
    55   0   1   0.0   336.024500   1008.073500   0.000000
    56   0   1   0.0   336.024500   1008.073500   336.024500
    57   0   1   0.0   336.024500   1008.073500   672.049000
    58   0   1   0.0   336.024500   1008.073500   1008.073500
    59   0   1   0.0   336.024500   1008.073500   1344.098000
    60   0   1   0.0   336.024500   1008.073500   1680.122500
    61   0   1   0.0   336.024500   1344.098000   0.000000
    62   0   1   0.0   336.024500   1344.098000   336.024500
    63   0   1   0.0   336.024500   1344.098000   672.049000
    64   0   1   0.0   336.024500   1344.098000   1008.073500
    65   0   1   0.0   336.024500   1344.098000   1344.098000
    66   0   1   0.0   336.024500   1344.098000   1680.122500
    67   0   1   0.0   336.024500   1680.122500   0.000000
    68   0   1   0.0   336.024500   1680.122500   336.024500
    69   0   1   0.0   336.024500   1680.122500   672.049000
    70   0   1   0.0   336.024500   1680.122500   1008.073500
    71   0   1   0.0   336.024500   1680.122500   1344.098000
    72   0   1   0.0   336.024500   1680.122500   1680.122500
    73   0   1   0.0   672.049000   0.000000   0.000000
    74   0   1   0.0   672.049000   0.000000   336.024500
    75   0   1   0.0   672.049000   0.000000   672.049000
    76   0   1   0.0   672.049000   0.000000   1008.073500
    77   0   1   0.0   672.049000   0.000000   1344.098000
    78   0   1   0.0   672.049000   0.000000   1680.122500
    79   0   1   0.0   672.049000   336.024500   0.000000
    80   0   1   0.0   672.049000   336.024500   336.024500
    81   0   1   0.0   672.049000   336.024500   672.049000
    82   0   1   0.0   672.049000   336.024500   1008.073500
    83   0   1   0.0   672.049000   336.024500   1344.098000
    84   0   1   0.0   672.049000   336.024500   1680.122500
    85   0   1   0.0   672.049000   672.049000   0.000000
    86   0   1   0.0   672.049000   672.049000   336.024500
    87   0   1   0.0   672.049000   672.049000   672.049000
    88   0   1   0.0   672.049000   672.049000   1008.073500
    89   0   1   0.0   672.049000   672.049000   1344.098000
    90   0   1   0.0   672.049000   672.049000   1680.122500
    91   0   1   0.0   672.049000   1008.073500   0.000000
    92   0   1   0.0   672.049000   1008.073500   336.024500
    93   0   1   0.0   672.049000   1008.073500   672.049000
    94   0   1   0.0   672.049000   1008.073500   1008.073500
    95   0   1   0.0   672.049000   1008.073500   1344.098000
    96   0   1   0.0   672.049000   1008.073500   1680.122500
    97   0   1   0.0   672.049000   1344.098000   0.000000
    98   0   1   0.0   672.049000   1344.098000   336.024500
    99   0   1   0.0   672.049000   1344.098000   672.049000
   100   0   1   0.0   672.049000   1344.098000   1008.073500
   101   0   1   0.0   672.049000   1344.098000   1344.098000
   102   0   1   0.0   672.049000   1344.098000   1680.122500
   103   0   1   0.0   672.049000   1680.122500   0.000000
   104   0   1   0.0   672.049000   1680.122500   336.024500
   105   0   1   0.0   672.049000   1680.122500   672.049000
   106   0   1   0.0   672.049000   1680.122500   1008.073500
   107   0   1   0.0   672.049000   1680.122500   1344.098000
   108   0   1   0.0   672.049000   1680.122500   1680.122500
   109   0   1   0.0   1008.073500   0.000000   0.000000
   110   0   1   0.0   1008.073500   0.000000   336.024500
   111   0   1   0.0   1008.073500   0.000000   672.049000
   112   0   1   0.0   1008.073500   0.000000   1008.073500
   113   0   1   0.0   1008.073500   0.000000   1344.098000
   114   0   1   0.0   1008.073500   0.000000   1680.122500
   115   0   1   0.0   1008.073500   336.024500   0.000000
   116   0   1   0.0   1008.073500   336.024500   336.024500
   117   0   1   0.0   1008.073500   336.024500   672.049000
   118   0   1   0.0   1008.073500   336.024500   1008.073500
   119   0   1   0.0   1008.073500   336.024500   1344.098000
   120   0   1   0.0   1008.073500   336.024500   1680.122500
   121   0   1   0.0   1008.073500   672.049000   0.000000
   122   0   1   0.0   1008.073500   672.049000   336.024500
   123   0   1   0.0   1008.073500   672.049000   672.049000
   124   0   1   0.0   1008.073500   672.049000   1008.073500
   125   0   1   0.0   1008.073500   672.049000   1344.098000
   126   0   1   0.0   1008.073500   672.049000   1680.122500
   127   0   1   0.0   1008.073500   1008.073500   0.000000
   128   0   1   0.0   1008.073500   1008.073500   336.024500
   129   0   1   0.0   1008.073500   1008.073500   672.049000
   130   0   1   0.0   1008.073500   1008.073500   1008.073500
   131   0   1   0.0   1008.073500   1008.073500   1344.098000
   132   0   1   0.0   1008.073500   1008.073500   1680.122500
   133   0   1   0.0   1008.073500   1344.098000   0.000000
   134   0   1   0.0   1008.073500   1344.098000   336.024500
   135   0   1   0.0   1008.073500   1344.098000   672.049000
   136   0   1   0.0   1008.073500   1344.098000   1008.073500
   137   0   1   0.0   1008.073500   1344.098000   1344.098000
   138   0   1   0.0   1008.073500   1344.098000   1680.122500
   139   0   1   0.0   1008.073500   1680.122500   0.000000
   140   0   1   0.0   1008.073500   1680.122500   336.024500
   141   0   1   0.0   1008.073500   1680.122500   672.049000
   142   0   1   0.0   1008.073500   1680.122500   1008.073500
   143   0   1   0.0   1008.073500   1680.122500   1344.098000
   144   0   1   0.0   1008.073500   1680.122500   1680.122500
   145   0   1   0.0   1344.098000   0.000000   0.000000
   146   0   1   0.0   1344.098000   0.000000   336.024500
   147   0   1   0.0   1344.098000   0.000000   672.049000
   148   0   1   0.0   1344.098000   0.000000   1008.073500
   149   0   1   0.0   1344.098000   0.000000   1344.098000
   150   0   1   0.0   1344.098000   0.000000   1680.122500
   151   0   1   0.0   1344.098000   336.024500   0.000000
   152   0   1   0.0   1344.098000   336.024500   336.024500
   153   0   1   0.0   1344.098000   336.024500   672.049000
   154   0   1   0.0   1344.098000   336.024500   1008.073500
   155   0   1   0.0   1344.098000   336.024500   1344.098000
   156   0   1   0.0   1344.098000   336.024500   1680.122500
   157   0   1   0.0   1344.098000   672.049000   0.000000
   158   0   1   0.0   1344.098000   672.049000   336.024500
   159   0   1   0.0   1344.098000   672.049000   672.049000
   160   0   1   0.0   1344.098000   672.049000   1008.073500
   161   0   1   0.0   1344.098000   672.049000   1344.098000
   162   0   1   0.0   1344.098000   672.049000   1680.122500
   163   0   1   0.0   1344.098000   1008.073500   0.000000
   164   0   1   0.0   1344.098000   1008.073500   336.024500
   165   0   1   0.0   1344.098000   1008.073500   672.049000
   166   0   1   0.0   1344.098000   1008.073500   1008.073500
   167   0   1   0.0   1344.098000   1008.073500   1344.098000
   168   0   1   0.0   1344.098000   1008.073500   1680.122500
   169   0   1   0.0   1344.098000   1344.098000   0.000000
   170   0   1   0.0   1344.098000   1344.098000   336.024500
   171   0   1   0.0   1344.098000   1344.098000   672.049000
   172   0   1   0.0   1344.098000   1344.098000   1008.073500
   173   0   1   0.0   1344.098000   1344.098000   1344.098000
   174   0   1   0.0   1344.098000   1344.098000   1680.122500
   175   0   1   0.0   1344.098000   1680.122500   0.000000
   176   0   1   0.0   1344.098000   1680.122500   336.024500
   177   0   1   0.0   1344.098000   1680.122500   672.049000
   178   0   1   0.0   1344.098000   1680.122500   1008.073500
   179   0   1   0.0   1344.098000   1680.122500   1344.098000
   180   0   1   0.0   1344.098000   1680.122500   1680.122500
   181   0   1   0.0   1680.122500   0.000000   0.000000
   182   0   1   0.0   1680.122500   0.000000   336.024500
   183   0   1   0.0   1680.122500   0.000000   672.049000
   184   0   1   0.0   1680.122500   0.000000   1008.073500
   185   0   1   0.0   1680.122500   0.000000   1344.098000
   186   0   1   0.0   1680.122500   0.000000   1680.122500
   187   0   1   0.0   1680.122500   336.024500   0.000000
   188   0   1   0.0   1680.122500   336.024500   336.024500
   189   0   1   0.0   1680.122500   336.024500   672.049000
   190   0   1   0.0   1680.122500   336.024500   1008.073500
   191   0   1   0.0   1680.122500   336.024500   1344.098000
   192   0   1   0.0   1680.122500   336.024500   1680.122500
   193   0   1   0.0   1680.122500   672.049000   0.000000
   194   0   1   0.0   1680.122500   672.049000   336.024500
   195   0   1   0.0   1680.122500   672.049000   672.049000
   196   0   1   0.0   1680.122500   672.049000   1008.073500
   197   0   1   0.0   1680.122500   672.049000   1344.098000
   198   0   1   0.0   1680.122500   672.049000   1680.122500
   199   0   1   0.0   1680.122500   1008.073500   0.000000
   200   0   1   0.0   1680.122500   1008.073500   336.024500
   201   0   1   0.0   1680.122500   1008.073500   672.049000
   202   0   1   0.0   1680.122500   1008.073500   1008.073500
   203   0   1   0.0   1680.122500   1008.073500   1344.098000
   204   0   1   0.0   1680.122500   1008.073500   1680.122500
   205   0   1   0.0   1680.122500   1344.098000   0.000000
   206   0   1   0.0   1680.122500   1344.098000   336.024500
   207   0   1   0.0   1680.122500   1344.098000   672.049000
   208   0   1   0.0   1680.122500   1344.098000   1008.073500
   209   0   1   0.0   1680.122500   1344.098000   1344.098000
   210   0   1   0.0   1680.122500   1344.098000   1680.122500
   211   0   1   0.0   1680.122500   1680.122500   0.000000
   212   0   1   0.0   1680.122500   1680.122500   336.024500
   213   0   1   0.0   1680.122500   1680.122500   672.049000
   214   0   1   0.0   1680.122500   1680.122500   1008.073500
   215   0   1   0.0   1680.122500   1680.122500   1344.098000
   216   0   1   0.0   1680.122500   1680.122500   1680.122500
   217   0   2   0.0   168.012250   168.012250   168.012250
   218   0   2   0.0   168.012250   168.012250   504.036750
   219   0   2   0.0   168.012250   168.012250   840.061250
   220   0   2   0.0   168.012250   168.012250   1176.085750
   221   0   2   0.0   168.012250   168.012250   1512.110250
   222   0   2   0.0   168.012250   168.012250   1848.134750
   223   0   2   0.0   168.012250   504.036750   168.012250
   224   0   2   0.0   168.012250   504.036750   504.036750
   225   0   2   0.0   168.012250   504.036750   840.061250
   226   0   2   0.0   168.012250   504.036750   1176.085750
   227   0   2   0.0   168.012250   504.036750   1512.110250
   228   0   2   0.0   168.012250   504.036750   1848.134750
   229   0   2   0.0   168.012250   840.061250   168.012250
   230   0   2   0.0   168.012250   840.061250   504.036750
   231   0   2   0.0   168.012250   840.061250   840.061250
   232   0   2   0.0   168.012250   840.061250   1176.085750
   233   0   2   0.0   168.012250   840.061250   1512.110250
   234   0   2   0.0   168.012250   840.061250   1848.134750
   235   0   2   0.0   168.012250   1176.085750   168.012250
   236   0   2   0.0   168.012250   1176.085750   504.036750
   237   0   2   0.0   168.012250   1176.085750   840.061250
   238   0   2   0.0   168.012250   1176.085750   1176.085750
   239   0   2   0.0   168.012250   1176.085750   1512.110250
   240   0   2   0.0   168.012250   1176.085750   1848.134750
   241   0   2   0.0   168.012250   1512.110250   168.012250
   242   0   2   0.0   168.012250   1512.110250   504.036750
   243   0   2   0.0   168.012250   1512.110250   840.061250
   244   0   2   0.0   168.012250   1512.110250   1176.085750
   245   0   2   0.0   168.012250   1512.110250   1512.110250
   246   0   2   0.0   168.012250   1512.110250   1848.134750
   247   0   2   0.0   168.012250   1848.134750   168.012250
   248   0   2   0.0   168.012250   1848.134750   504.036750
   249   0   2   0.0   168.012250   1848.134750   840.061250
   250   0   2   0.0   168.012250   1848.134750   1176.085750
   251   0   2   0.0   168.012250   1848.134750   1512.110250
   252   0   2   0.0   168.012250   1848.134750   1848.134750
   253   0   2   0.0   504.036750   168.012250   168.012250
   254   0   2   0.0   504.036750   168.012250   504.036750
   255   0   2   0.0   504.036750   168.012250   840.061250
   256   0   2   0.0   504.036750   168.012250   1176.085750
   257   0   2   0.0   504.036750   168.012250   1512.110250
   258   0   2   0.0   504.036750   168.012250   1848.134750
   259   0   2   0.0   504.036750   504.036750   168.012250
   260   0   2   0.0   504.036750   504.036750   504.036750
   261   0   2   0.0   504.036750   504.036750   840.061250
   262   0   2   0.0   504.036750   504.036750   1176.085750
   263   0   2   0.0   504.036750   504.036750   1512.110250
   264   0   2   0.0   504.036750   504.036750   1848.134750
   265   0   2   0.0   504.036750   840.061250   168.012250
   266   0   2   0.0   504.036750   840.061250   504.036750
   267   0   2   0.0   504.036750   840.061250   840.061250
   268   0   2   0.0   504.036750   840.061250   1176.085750
   269   0   2   0.0   504.036750   840.061250   1512.110250
   270   0   2   0.0   504.036750   840.061250   1848.134750
   271   0   2   0.0   504.036750   1176.085750   168.012250
   272   0   2   0.0   504.036750   1176.085750   504.036750
   273   0   2   0.0   504.036750   1176.085750   840.061250
   274   0   2   0.0   504.036750   1176.085750   1176.085750
   275   0   2   0.0   504.036750   1176.085750   1512.110250
   276   0   2   0.0   504.036750   1176.085750   1848.134750
   277   0   2   0.0   504.036750   1512.110250   168.012250
   278   0   2   0.0   504.036750   1512.110250   504.036750
   279   0   2   0.0   504.036750   1512.110250   840.061250
   280   0   2   0.0   504.036750   1512.110250   1176.085750
   281   0   2   0.0   504.036750   1512.110250   1512.110250
   282   0   2   0.0   504.036750   1512.110250   1848.134750
   283   0   2   0.0   504.036750   1848.134750   168.012250
   284   0   2   0.0   504.036750   1848.134750   504.036750
   285   0   2   0.0   504.036750   1848.134750   840.061250
   286   0   2   0.0   504.036750   1848.134750   1176.085750
   287   0   2   0.0   504.036750   1848.134750   1512.110250
   288   0   2   0.0   504.036750   1848.134750   1848.134750
   289   0   2   0.0   840.061250   168.012250   168.012250
   290   0   2   0.0   840.061250   168.012250   504.036750
   291   0   2   0.0   840.061250   168.012250   840.061250
   292   0   2   0.0   840.061250   168.012250   1176.085750
   293   0   2   0.0   840.061250   168.012250   1512.110250
   294   0   2   0.0   840.061250   168.012250   1848.134750
   295   0   2   0.0   840.061250   504.036750   168.012250
   296   0   2   0.0   840.061250   504.036750   504.036750
   297   0   2   0.0   840.061250   504.036750   840.061250
   298   0   2   0.0   840.061250   504.036750   1176.085750
   299   0   2   0.0   840.061250   504.036750   1512.110250
   300   0   2   0.0   840.061250   504.036750   1848.134750
   301   0   2   0.0   840.061250   840.061250   168.012250
   302   0   2   0.0   840.061250   840.061250   504.036750
   303   0   2   0.0   840.061250   840.061250   840.061250
   304   0   2   0.0   840.061250   840.061250   1176.085750
   305   0   2   0.0   840.061250   840.061250   1512.110250
   306   0   2   0.0   840.061250   840.061250   1848.134750
   307   0   2   0.0   840.061250   1176.085750   168.012250
   308   0   2   0.0   840.061250   1176.085750   504.036750
   309   0   2   0.0   840.061250   1176.085750   840.061250
   310   0   2   0.0   840.061250   1176.085750   1176.085750
   311   0   2   0.0   840.061250   1176.085750   1512.110250
   312   0   2   0.0   840.061250   1176.085750   1848.134750
   313   0   2   0.0   840.061250   1512.110250   168.012250
   314   0   2   0.0   840.061250   1512.110250   504.036750
   315   0   2   0.0   840.061250   1512.110250   840.061250
   316   0   2   0.0   840.061250   1512.110250   1176.085750
   317   0   2   0.0   840.061250   1512.110250   1512.110250
   318   0   2   0.0   840.061250   1512.110250   1848.134750
   319   0   2   0.0   840.061250   1848.134750   168.012250
   320   0   2   0.0   840.061250   1848.134750   504.036750
   321   0   2   0.0   840.061250   1848.134750   840.061250
   322   0   2   0.0   840.061250   1848.134750   1176.085750
   323   0   2   0.0   840.061250   1848.134750   1512.110250
   324   0   2   0.0   840.061250   1848.134750   1848.134750
   325   0   2   0.0   1176.085750   168.012250   168.012250
   326   0   2   0.0   1176.085750   168.012250   504.036750
   327   0   2   0.0   1176.085750   168.012250   840.061250
   328   0   2   0.0   1176.085750   168.012250   1176.085750
   329   0   2   0.0   1176.085750   168.012250   1512.110250
   330   0   2   0.0   1176.085750   168.012250   1848.134750
   331   0   2   0.0   1176.085750   504.036750   168.012250
   332   0   2   0.0   1176.085750   504.036750   504.036750
   333   0   2   0.0   1176.085750   504.036750   840.061250
   334   0   2   0.0   1176.085750   504.036750   1176.085750
   335   0   2   0.0   1176.085750   504.036750   1512.110250
   336   0   2   0.0   1176.085750   504.036750   1848.134750
   337   0   2   0.0   1176.085750   840.061250   168.012250
   338   0   2   0.0   1176.085750   840.061250   504.036750
   339   0   2   0.0   1176.085750   840.061250   840.061250
   340   0   2   0.0   1176.085750   840.061250   1176.085750
   341   0   2   0.0   1176.085750   840.061250   1512.110250
   342   0   2   0.0   1176.085750   840.061250   1848.134750
   343   0   2   0.0   1176.085750   1176.085750   168.012250
   344   0   2   0.0   1176.085750   1176.085750   504.036750
   345   0   2   0.0   1176.085750   1176.085750   840.061250
   346   0   2   0.0   1176.085750   1176.085750   1176.085750
   347   0   2   0.0   1176.085750   1176.085750   1512.110250
   348   0   2   0.0   1176.085750   1176.085750   1848.134750
   349   0   2   0.0   1176.085750   1512.110250   168.012250
   350   0   2   0.0   1176.085750   1512.110250   504.036750
   351   0   2   0.0   1176.085750   1512.110250   840.061250
   352   0   2   0.0   1176.085750   1512.110250   1176.085750
   353   0   2   0.0   1176.085750   1512.110250   1512.110250
   354   0   2   0.0   1176.085750   1512.110250   1848.134750
   355   0   2   0.0   1176.085750   1848.134750   168.012250
   356   0   2   0.0   1176.085750   1848.134750   504.036750
   357   0   2   0.0   1176.085750   1848.134750   840.061250
   358   0   2   0.0   1176.085750   1848.134750   1176.085750
   359   0   2   0.0   1176.085750   1848.134750   1512.110250
   360   0   2   0.0   1176.085750   1848.134750   1848.134750
   361   0   2   0.0   1512.110250   168.012250   168.012250
   362   0   2   0.0   1512.110250   168.012250   504.036750
   363   0   2   0.0   1512.110250   168.012250   840.061250
   364   0   2   0.0   1512.110250   168.012250   1176.085750
   365   0   2   0.0   1512.110250   168.012250   1512.110250
   366   0   2   0.0   1512.110250   168.012250   1848.134750
   367   0   2   0.0   1512.110250   504.036750   168.012250
   368   0   2   0.0   1512.110250   504.036750   504.036750
   369   0   2   0.0   1512.110250   504.036750   840.061250
   370   0   2   0.0   1512.110250   504.036750   1176.085750
   371   0   2   0.0   1512.110250   504.036750   1512.110250
   372   0   2   0.0   1512.110250   504.036750   1848.134750
   373   0   2   0.0   1512.110250   840.061250   168.012250
   374   0   2   0.0   1512.110250   840.061250   504.036750
   375   0   2   0.0   1512.110250   840.061250   840.061250
   376   0   2   0.0   1512.110250   840.061250   1176.085750
   377   0   2   0.0   1512.110250   840.061250   1512.110250
   378   0   2   0.0   1512.110250   840.061250   1848.134750
   379   0   2   0.0   1512.110250   1176.085750   168.012250
   380   0   2   0.0   1512.110250   1176.085750   504.036750
   381   0   2   0.0   1512.110250   1176.085750   840.061250
   382   0   2   0.0   1512.110250   1176.085750   1176.085750
   383   0   2   0.0   1512.110250   1176.085750   1512.110250
   384   0   2   0.0   1512.110250   1176.085750   1848.134750
   385   0   2   0.0   1512.110250   1512.110250   168.012250
   386   0   2   0.0   1512.110250   1512.110250   504.036750
   387   0   2   0.0   1512.110250   1512.110250   840.061250
   388   0   2   0.0   1512.110250   1512.110250   1176.085750
   389   0   2   0.0   1512.110250   1512.110250   1512.110250
   390   0   2   0.0   1512.110250   1512.110250   1848.134750
   391   0   2   0.0   1512.110250   1848.134750   168.012250
   392   0   2   0.0   1512.110250   1848.134750   504.036750
   393   0   2   0.0   1512.110250   1848.134750   840.061250
   394   0   2   0.0   1512.110250   1848.134750   1176.085750
   395   0   2   0.0   1512.110250   1848.134750   1512.110250
   396   0   2   0.0   1512.110250   1848.134750   1848.134750
   397   0   2   0.0   1848.134750   168.012250   168.012250
   398   0   2   0.0   1848.134750   168.012250   504.036750
   399   0   2   0.0   1848.134750   168.012250   840.061250
   400   0   2   0.0   1848.134750   168.012250   1176.085750
   401   0   2   0.0   1848.134750   168.012250   1512.110250
   402   0   2   0.0   1848.134750   168.012250   1848.134750
   403   0   2   0.0   1848.134750   504.036750   168.012250
   404   0   2   0.0   1848.134750   504.036750   504.036750
   405   0   2   0.0   1848.134750   504.036750   840.061250
   406   0   2   0.0   1848.134750   504.036750   1176.085750
   407   0   2   0.0   1848.134750   504.036750   1512.110250
   408   0   2   0.0   1848.134750   504.036750   1848.134750
   409   0   2   0.0   1848.134750   840.061250   168.012250
   410   0   2   0.0   1848.134750   840.061250   504.036750
   411   0   2   0.0   1848.134750   840.061250   840.061250
   412   0   2   0.0   1848.134750   840.061250   1176.085750
   413   0   2   0.0   1848.134750   840.061250   1512.110250
   414   0   2   0.0   1848.134750   840.061250   1848.134750
   415   0   2   0.0   1848.134750   1176.085750   168.012250
   416   0   2   0.0   1848.134750   1176.085750   504.036750
   417   0   2   0.0   1848.134750   1176.085750   840.061250
   418   0   2   0.0   1848.134750   1176.085750   1176.085750
   419   0   2   0.0   1848.134750   1176.085750   1512.110250
   420   0   2   0.0   1848.134750   1176.085750   1848.134750
   421   0   2   0.0   1848.134750   1512.110250   168.012250
   422   0   2   0.0   1848.134750   1512.110250   504.036750
   423   0   2   0.0   1848.134750   1512.110250   840.061250
   424   0   2   0.0   1848.134750   1512.110250   1176.085750
   425   0   2   0.0   1848.134750   1512.110250   1512.110250
   426   0   2   0.0   1848.134750   1512.110250   1848.134750
   427   0   2   0.0   1848.134750   1848.134750   168.012250
   428   0   2   0.0   1848.134750   1848.134750   504.036750
   429   0   2   0.0   1848.134750   1848.134750   840.061250
   430   0   2   0.0   1848.134750   1848.134750   1176.085750
   431   0   2   0.0   1848.134750   1848.134750   1512.110250
   432   0   2   0.0   1848.134750   1848.134750   1848.134750
