(written by ASE)

8 atoms
4 bonds
3 atom types
1 bond types

0.0       5.906639623416976  xlo xhi
0.0      5.1874636531314557  ylo yhi
0.0      4.8646963774640426  zlo zhi
     2.8134763033270382      2.8213027861326379      1.6731324776799934  xy xz yz

Atoms # full

     1   0   1   0.0      4.3583248079689225      2.9906043944626632      1.6444262386096031
     2   0   3   0.0      6.0292896154161282      1.9054086780562729      3.0397607548033512
     3   0   3   0.0      6.0642791346938871       3.953112692633038     0.21428992689746656
     4   0   3   0.0      4.2800086953514178      4.9714713659903529      3.0284694355441237
     5   0   3   0.0      4.4197945947029593     0.99158585356582751     0.24456374853877152
     6   0   3   0.0      2.6340904135111969      2.0095339418816627      3.0580293068256701
     7   0   2   0.0      10.121380712538199      6.4118154344699487       4.069864209141314
     8   0   3   0.0       2.668851266965468      4.0482162652093967     0.23198422946622124

Bonds

    1  1   1   2
    2  1   1   3
    3  1   1   4
    4  1   2   3
    5  1   2   1