(written by ASE)

3456 atoms
0 bonds
2 atom types
0 bond types

0.0 1726.359785 xlo xhi
0.0 1726.359785 ylo yhi
0.0 1726.359785 zlo zhi
0.0 0.0 0.0 xy xz yz

Atoms # full

     1   0   2   0.0   -1596.359785   -1596.359785   -1596.359785
     2   0   2   0.0   -1596.359785   -1596.359785   -763.476419
     3   0   2   0.0   -1596.359785   -1596.359785   69.406947
     4   0   2   0.0   -1596.359785   -1596.359785   902.290314
     5   0   2   0.0   -1596.359785   -763.476419   -1596.359785
     6   0   2   0.0   -1596.359785   -763.476419   -763.476419
     7   0   2   0.0   -1596.359785   -763.476419   69.406947
     8   0   2   0.0   -1596.359785   -763.476419   902.290314
     9   0   2   0.0   -1596.359785   69.406947   -1596.359785
    10   0   2   0.0   -1596.359785   69.406947   -763.476419
    11   0   2   0.0   -1596.359785   69.406947   69.406947
    12   0   2   0.0   -1596.359785   69.406947   902.290314
    13   0   2   0.0   -1596.359785   902.290314   -1596.359785
    14   0   2   0.0   -1596.359785   902.290314   -763.476419
    15   0   2   0.0   -1596.359785   902.290314   69.406947
    16   0   2   0.0   -1596.359785   902.290314   902.290314
    17   0   2   0.0   -763.476419   -1596.359785   -1596.359785
    18   0   2   0.0   -763.476419   -1596.359785   -763.476419
    19   0   2   0.0   -763.476419   -1596.359785   69.406947
    20   0   2   0.0   -763.476419   -1596.359785   902.290314
    21   0   2   0.0   -763.476419   -763.476419   -1596.359785
    22   0   2   0.0   -763.476419   -763.476419   -763.476419
    23   0   2   0.0   -763.476419   -763.476419   69.406947
    24   0   2   0.0   -763.476419   -763.476419   902.290314
    25   0   2   0.0   -763.476419   69.406947   -1596.359785
    26   0   2   0.0   -763.476419   69.406947   -763.476419
    27   0   2   0.0   -763.476419   69.406947   69.406947
    28   0   2   0.0   -763.476419   69.406947   902.290314
    29   0   2   0.0   -763.476419   902.290314   -1596.359785
    30   0   2   0.0   -763.476419   902.290314   -763.476419
    31   0   2   0.0   -763.476419   902.290314   69.406947
    32   0   2   0.0   -763.476419   902.290314   902.290314
    33   0   2   0.0   69.406947   -1596.359785   -1596.359785
    34   0   2   0.0   69.406947   -1596.359785   -763.476419
    35   0   2   0.0   69.406947   -1596.359785   69.406947
    36   0   2   0.0   69.406947   -1596.359785   902.290314
    37   0   2   0.0   69.406947   -763.476419   -1596.359785
    38   0   2   0.0   69.406947   -763.476419   -763.476419
    39   0   2   0.0   69.406947   -763.476419   69.406947
    40   0   2   0.0   69.406947   -763.476419   902.290314
    41   0   2   0.0   69.406947   69.406947   -1596.359785
    42   0   2   0.0   69.406947   69.406947   -763.476419
    43   0   2   0.0   69.406947   69.406947   69.406947
    44   0   2   0.0   69.406947   69.406947   902.290314
    45   0   2   0.0   69.406947   902.290314   -1596.359785
    46   0   2   0.0   69.406947   902.290314   -763.476419
    47   0   2   0.0   69.406947   902.290314   69.406947
    48   0   2   0.0   69.406947   902.290314   902.290314
    49   0   2   0.0   902.290314   -1596.359785   -1596.359785
    50   0   2   0.0   902.290314   -1596.359785   -763.476419
    51   0   2   0.0   902.290314   -1596.359785   69.406947
    52   0   2   0.0   902.290314   -1596.359785   902.290314
    53   0   2   0.0   902.290314   -763.476419   -1596.359785
    54   0   2   0.0   902.290314   -763.476419   -763.476419
    55   0   2   0.0   902.290314   -763.476419   69.406947
    56   0   2   0.0   902.290314   -763.476419   902.290314
    57   0   2   0.0   902.290314   69.406947   -1596.359785
    58   0   2   0.0   902.290314   69.406947   -763.476419
    59   0   2   0.0   902.290314   69.406947   69.406947
    60   0   2   0.0   902.290314   69.406947   902.290314
    61   0   2   0.0   902.290314   902.290314   -1596.359785
    62   0   2   0.0   902.290314   902.290314   -763.476419
    63   0   2   0.0   902.290314   902.290314   69.406947
    64   0   2   0.0   902.290314   902.290314   902.290314
    65   0   2   0.0   -1596.359785   -1596.359785   -1318.731997
    66   0   2   0.0   -1596.359785   -1596.359785   -485.848630
    67   0   2   0.0   -1596.359785   -1596.359785   347.034736
    68   0   2   0.0   -1596.359785   -1596.359785   1179.918102
    69   0   2   0.0   -1596.359785   -763.476419   -1318.731997
    70   0   2   0.0   -1596.359785   -763.476419   -485.848630
    71   0   2   0.0   -1596.359785   -763.476419   347.034736
    72   0   2   0.0   -1596.359785   -763.476419   1179.918102
    73   0   2   0.0   -1596.359785   69.406947   -1318.731997
    74   0   2   0.0   -1596.359785   69.406947   -485.848630
    75   0   2   0.0   -1596.359785   69.406947   347.034736
    76   0   2   0.0   -1596.359785   69.406947   1179.918102
    77   0   2   0.0   -1596.359785   902.290314   -1318.731997
    78   0   2   0.0   -1596.359785   902.290314   -485.848630
    79   0   2   0.0   -1596.359785   902.290314   347.034736
    80   0   2   0.0   -1596.359785   902.290314   1179.918102
    81   0   2   0.0   -763.476419   -1596.359785   -1318.731997
    82   0   2   0.0   -763.476419   -1596.359785   -485.848630
    83   0   2   0.0   -763.476419   -1596.359785   347.034736
    84   0   2   0.0   -763.476419   -1596.359785   1179.918102
    85   0   2   0.0   -763.476419   -763.476419   -1318.731997
    86   0   2   0.0   -763.476419   -763.476419   -485.848630
    87   0   2   0.0   -763.476419   -763.476419   347.034736
    88   0   2   0.0   -763.476419   -763.476419   1179.918102
    89   0   2   0.0   -763.476419   69.406947   -1318.731997
    90   0   2   0.0   -763.476419   69.406947   -485.848630
    91   0   2   0.0   -763.476419   69.406947   347.034736
    92   0   2   0.0   -763.476419   69.406947   1179.918102
    93   0   2   0.0   -763.476419   902.290314   -1318.731997
    94   0   2   0.0   -763.476419   902.290314   -485.848630
    95   0   2   0.0   -763.476419   902.290314   347.034736
    96   0   2   0.0   -763.476419   902.290314   1179.918102
    97   0   2   0.0   69.406947   -1596.359785   -1318.731997
    98   0   2   0.0   69.406947   -1596.359785   -485.848630
    99   0   2   0.0   69.406947   -1596.359785   347.034736
   100   0   2   0.0   69.406947   -1596.359785   1179.918102
   101   0   2   0.0   69.406947   -763.476419   -1318.731997
   102   0   2   0.0   69.406947   -763.476419   -485.848630
   103   0   2   0.0   69.406947   -763.476419   347.034736
   104   0   2   0.0   69.406947   -763.476419   1179.918102
   105   0   2   0.0   69.406947   69.406947   -1318.731997
   106   0   2   0.0   69.406947   69.406947   -485.848630
   107   0   2   0.0   69.406947   69.406947   347.034736
   108   0   2   0.0   69.406947   69.406947   1179.918102
   109   0   2   0.0   69.406947   902.290314   -1318.731997
   110   0   2   0.0   69.406947   902.290314   -485.848630
   111   0   2   0.0   69.406947   902.290314   347.034736
   112   0   2   0.0   69.406947   902.290314   1179.918102
   113   0   2   0.0   902.290314   -1596.359785   -1318.731997
   114   0   2   0.0   902.290314   -1596.359785   -485.848630
   115   0   2   0.0   902.290314   -1596.359785   347.034736
   116   0   2   0.0   902.290314   -1596.359785   1179.918102
   117   0   2   0.0   902.290314   -763.476419   -1318.731997
   118   0   2   0.0   902.290314   -763.476419   -485.848630
   119   0   2   0.0   902.290314   -763.476419   347.034736
   120   0   2   0.0   902.290314   -763.476419   1179.918102
   121   0   2   0.0   902.290314   69.406947   -1318.731997
   122   0   2   0.0   902.290314   69.406947   -485.848630
   123   0   2   0.0   902.290314   69.406947   347.034736
   124   0   2   0.0   902.290314   69.406947   1179.918102
   125   0   2   0.0   902.290314   902.290314   -1318.731997
   126   0   2   0.0   902.290314   902.290314   -485.848630
   127   0   2   0.0   902.290314   902.290314   347.034736
   128   0   2   0.0   902.290314   902.290314   1179.918102
   129   0   2   0.0   -1596.359785   -1596.359785   -1041.104208
   130   0   2   0.0   -1596.359785   -1596.359785   -208.220842
   131   0   2   0.0   -1596.359785   -1596.359785   624.662525
   132   0   2   0.0   -1596.359785   -1596.359785   1457.545891
   133   0   2   0.0   -1596.359785   -763.476419   -1041.104208
   134   0   2   0.0   -1596.359785   -763.476419   -208.220842
   135   0   2   0.0   -1596.359785   -763.476419   624.662525
   136   0   2   0.0   -1596.359785   -763.476419   1457.545891
   137   0   2   0.0   -1596.359785   69.406947   -1041.104208
   138   0   2   0.0   -1596.359785   69.406947   -208.220842
   139   0   2   0.0   -1596.359785   69.406947   624.662525
   140   0   2   0.0   -1596.359785   69.406947   1457.545891
   141   0   2   0.0   -1596.359785   902.290314   -1041.104208
   142   0   2   0.0   -1596.359785   902.290314   -208.220842
   143   0   2   0.0   -1596.359785   902.290314   624.662525
   144   0   2   0.0   -1596.359785   902.290314   1457.545891
   145   0   2   0.0   -763.476419   -1596.359785   -1041.104208
   146   0   2   0.0   -763.476419   -1596.359785   -208.220842
   147   0   2   0.0   -763.476419   -1596.359785   624.662525
   148   0   2   0.0   -763.476419   -1596.359785   1457.545891
   149   0   2   0.0   -763.476419   -763.476419   -1041.104208
   150   0   2   0.0   -763.476419   -763.476419   -208.220842
   151   0   2   0.0   -763.476419   -763.476419   624.662525
   152   0   2   0.0   -763.476419   -763.476419   1457.545891
   153   0   2   0.0   -763.476419   69.406947   -1041.104208
   154   0   2   0.0   -763.476419   69.406947   -208.220842
   155   0   2   0.0   -763.476419   69.406947   624.662525
   156   0   2   0.0   -763.476419   69.406947   1457.545891
   157   0   2   0.0   -763.476419   902.290314   -1041.104208
   158   0   2   0.0   -763.476419   902.290314   -208.220842
   159   0   2   0.0   -763.476419   902.290314   624.662525
   160   0   2   0.0   -763.476419   902.290314   1457.545891
   161   0   2   0.0   69.406947   -1596.359785   -1041.104208
   162   0   2   0.0   69.406947   -1596.359785   -208.220842
   163   0   2   0.0   69.406947   -1596.359785   624.662525
   164   0   2   0.0   69.406947   -1596.359785   1457.545891
   165   0   2   0.0   69.406947   -763.476419   -1041.104208
   166   0   2   0.0   69.406947   -763.476419   -208.220842
   167   0   2   0.0   69.406947   -763.476419   624.662525
   168   0   2   0.0   69.406947   -763.476419   1457.545891
   169   0   2   0.0   69.406947   69.406947   -1041.104208
   170   0   2   0.0   69.406947   69.406947   -208.220842
   171   0   2   0.0   69.406947   69.406947   624.662525
   172   0   2   0.0   69.406947   69.406947   1457.545891
   173   0   2   0.0   69.406947   902.290314   -1041.104208
   174   0   2   0.0   69.406947   902.290314   -208.220842
   175   0   2   0.0   69.406947   902.290314   624.662525
   176   0   2   0.0   69.406947   902.290314   1457.545891
   177   0   2   0.0   902.290314   -1596.359785   -1041.104208
   178   0   2   0.0   902.290314   -1596.359785   -208.220842
   179   0   2   0.0   902.290314   -1596.359785   624.662525
   180   0   2   0.0   902.290314   -1596.359785   1457.545891
   181   0   2   0.0   902.290314   -763.476419   -1041.104208
   182   0   2   0.0   902.290314   -763.476419   -208.220842
   183   0   2   0.0   902.290314   -763.476419   624.662525
   184   0   2   0.0   902.290314   -763.476419   1457.545891
   185   0   2   0.0   902.290314   69.406947   -1041.104208
   186   0   2   0.0   902.290314   69.406947   -208.220842
   187   0   2   0.0   902.290314   69.406947   624.662525
   188   0   2   0.0   902.290314   69.406947   1457.545891
   189   0   2   0.0   902.290314   902.290314   -1041.104208
   190   0   2   0.0   902.290314   902.290314   -208.220842
   191   0   2   0.0   902.290314   902.290314   624.662525
   192   0   2   0.0   902.290314   902.290314   1457.545891
   193   0   2   0.0   -1596.359785   -1318.731997   -1596.359785
   194   0   2   0.0   -1596.359785   -1318.731997   -763.476419
   195   0   2   0.0   -1596.359785   -1318.731997   69.406947
   196   0   2   0.0   -1596.359785   -1318.731997   902.290314
   197   0   2   0.0   -1596.359785   -485.848630   -1596.359785
   198   0   2   0.0   -1596.359785   -485.848630   -763.476419
   199   0   2   0.0   -1596.359785   -485.848630   69.406947
   200   0   2   0.0   -1596.359785   -485.848630   902.290314
   201   0   2   0.0   -1596.359785   347.034736   -1596.359785
   202   0   2   0.0   -1596.359785   347.034736   -763.476419
   203   0   2   0.0   -1596.359785   347.034736   69.406947
   204   0   2   0.0   -1596.359785   347.034736   902.290314
   205   0   2   0.0   -1596.359785   1179.918102   -1596.359785
   206   0   2   0.0   -1596.359785   1179.918102   -763.476419
   207   0   2   0.0   -1596.359785   1179.918102   69.406947
   208   0   2   0.0   -1596.359785   1179.918102   902.290314
   209   0   2   0.0   -763.476419   -1318.731997   -1596.359785
   210   0   2   0.0   -763.476419   -1318.731997   -763.476419
   211   0   2   0.0   -763.476419   -1318.731997   69.406947
   212   0   2   0.0   -763.476419   -1318.731997   902.290314
   213   0   2   0.0   -763.476419   -485.848630   -1596.359785
   214   0   2   0.0   -763.476419   -485.848630   -763.476419
   215   0   2   0.0   -763.476419   -485.848630   69.406947
   216   0   2   0.0   -763.476419   -485.848630   902.290314
   217   0   2   0.0   -763.476419   347.034736   -1596.359785
   218   0   2   0.0   -763.476419   347.034736   -763.476419
   219   0   2   0.0   -763.476419   347.034736   69.406947
   220   0   2   0.0   -763.476419   347.034736   902.290314
   221   0   2   0.0   -763.476419   1179.918102   -1596.359785
   222   0   2   0.0   -763.476419   1179.918102   -763.476419
   223   0   2   0.0   -763.476419   1179.918102   69.406947
   224   0   2   0.0   -763.476419   1179.918102   902.290314
   225   0   2   0.0   69.406947   -1318.731997   -1596.359785
   226   0   2   0.0   69.406947   -1318.731997   -763.476419
   227   0   2   0.0   69.406947   -1318.731997   69.406947
   228   0   2   0.0   69.406947   -1318.731997   902.290314
   229   0   2   0.0   69.406947   -485.848630   -1596.359785
   230   0   2   0.0   69.406947   -485.848630   -763.476419
   231   0   2   0.0   69.406947   -485.848630   69.406947
   232   0   2   0.0   69.406947   -485.848630   902.290314
   233   0   2   0.0   69.406947   347.034736   -1596.359785
   234   0   2   0.0   69.406947   347.034736   -763.476419
   235   0   2   0.0   69.406947   347.034736   69.406947
   236   0   2   0.0   69.406947   347.034736   902.290314
   237   0   2   0.0   69.406947   1179.918102   -1596.359785
   238   0   2   0.0   69.406947   1179.918102   -763.476419
   239   0   2   0.0   69.406947   1179.918102   69.406947
   240   0   2   0.0   69.406947   1179.918102   902.290314
   241   0   2   0.0   902.290314   -1318.731997   -1596.359785
   242   0   2   0.0   902.290314   -1318.731997   -763.476419
   243   0   2   0.0   902.290314   -1318.731997   69.406947
   244   0   2   0.0   902.290314   -1318.731997   902.290314
   245   0   2   0.0   902.290314   -485.848630   -1596.359785
   246   0   2   0.0   902.290314   -485.848630   -763.476419
   247   0   2   0.0   902.290314   -485.848630   69.406947
   248   0   2   0.0   902.290314   -485.848630   902.290314
   249   0   2   0.0   902.290314   347.034736   -1596.359785
   250   0   2   0.0   902.290314   347.034736   -763.476419
   251   0   2   0.0   902.290314   347.034736   69.406947
   252   0   2   0.0   902.290314   347.034736   902.290314
   253   0   2   0.0   902.290314   1179.918102   -1596.359785
   254   0   2   0.0   902.290314   1179.918102   -763.476419
   255   0   2   0.0   902.290314   1179.918102   69.406947
   256   0   2   0.0   902.290314   1179.918102   902.290314
   257   0   2   0.0   -1596.359785   -1318.731997   -1318.731997
   258   0   2   0.0   -1596.359785   -1318.731997   -485.848630
   259   0   2   0.0   -1596.359785   -1318.731997   347.034736
   260   0   2   0.0   -1596.359785   -1318.731997   1179.918102
   261   0   2   0.0   -1596.359785   -485.848630   -1318.731997
   262   0   2   0.0   -1596.359785   -485.848630   -485.848630
   263   0   2   0.0   -1596.359785   -485.848630   347.034736
   264   0   2   0.0   -1596.359785   -485.848630   1179.918102
   265   0   2   0.0   -1596.359785   347.034736   -1318.731997
   266   0   2   0.0   -1596.359785   347.034736   -485.848630
   267   0   2   0.0   -1596.359785   347.034736   347.034736
   268   0   2   0.0   -1596.359785   347.034736   1179.918102
   269   0   2   0.0   -1596.359785   1179.918102   -1318.731997
   270   0   2   0.0   -1596.359785   1179.918102   -485.848630
   271   0   2   0.0   -1596.359785   1179.918102   347.034736
   272   0   2   0.0   -1596.359785   1179.918102   1179.918102
   273   0   2   0.0   -763.476419   -1318.731997   -1318.731997
   274   0   2   0.0   -763.476419   -1318.731997   -485.848630
   275   0   2   0.0   -763.476419   -1318.731997   347.034736
   276   0   2   0.0   -763.476419   -1318.731997   1179.918102
   277   0   2   0.0   -763.476419   -485.848630   -1318.731997
   278   0   2   0.0   -763.476419   -485.848630   -485.848630
   279   0   2   0.0   -763.476419   -485.848630   347.034736
   280   0   2   0.0   -763.476419   -485.848630   1179.918102
   281   0   2   0.0   -763.476419   347.034736   -1318.731997
   282   0   2   0.0   -763.476419   347.034736   -485.848630
   283   0   2   0.0   -763.476419   347.034736   347.034736
   284   0   2   0.0   -763.476419   347.034736   1179.918102
   285   0   2   0.0   -763.476419   1179.918102   -1318.731997
   286   0   2   0.0   -763.476419   1179.918102   -485.848630
   287   0   2   0.0   -763.476419   1179.918102   347.034736
   288   0   2   0.0   -763.476419   1179.918102   1179.918102
   289   0   2   0.0   69.406947   -1318.731997   -1318.731997
   290   0   2   0.0   69.406947   -1318.731997   -485.848630
   291   0   2   0.0   69.406947   -1318.731997   347.034736
   292   0   2   0.0   69.406947   -1318.731997   1179.918102
   293   0   2   0.0   69.406947   -485.848630   -1318.731997
   294   0   2   0.0   69.406947   -485.848630   -485.848630
   295   0   2   0.0   69.406947   -485.848630   347.034736
   296   0   2   0.0   69.406947   -485.848630   1179.918102
   297   0   2   0.0   69.406947   347.034736   -1318.731997
   298   0   2   0.0   69.406947   347.034736   -485.848630
   299   0   2   0.0   69.406947   347.034736   347.034736
   300   0   2   0.0   69.406947   347.034736   1179.918102
   301   0   2   0.0   69.406947   1179.918102   -1318.731997
   302   0   2   0.0   69.406947   1179.918102   -485.848630
   303   0   2   0.0   69.406947   1179.918102   347.034736
   304   0   2   0.0   69.406947   1179.918102   1179.918102
   305   0   2   0.0   902.290314   -1318.731997   -1318.731997
   306   0   2   0.0   902.290314   -1318.731997   -485.848630
   307   0   2   0.0   902.290314   -1318.731997   347.034736
   308   0   2   0.0   902.290314   -1318.731997   1179.918102
   309   0   2   0.0   902.290314   -485.848630   -1318.731997
   310   0   2   0.0   902.290314   -485.848630   -485.848630
   311   0   2   0.0   902.290314   -485.848630   347.034736
   312   0   2   0.0   902.290314   -485.848630   1179.918102
   313   0   2   0.0   902.290314   347.034736   -1318.731997
   314   0   2   0.0   902.290314   347.034736   -485.848630
   315   0   2   0.0   902.290314   347.034736   347.034736
   316   0   2   0.0   902.290314   347.034736   1179.918102
   317   0   2   0.0   902.290314   1179.918102   -1318.731997
   318   0   2   0.0   902.290314   1179.918102   -485.848630
   319   0   2   0.0   902.290314   1179.918102   347.034736
   320   0   2   0.0   902.290314   1179.918102   1179.918102
   321   0   2   0.0   -1596.359785   -1318.731997   -1041.104208
   322   0   2   0.0   -1596.359785   -1318.731997   -208.220842
   323   0   2   0.0   -1596.359785   -1318.731997   624.662525
   324   0   2   0.0   -1596.359785   -1318.731997   1457.545891
   325   0   2   0.0   -1596.359785   -485.848630   -1041.104208
   326   0   2   0.0   -1596.359785   -485.848630   -208.220842
   327   0   2   0.0   -1596.359785   -485.848630   624.662525
   328   0   2   0.0   -1596.359785   -485.848630   1457.545891
   329   0   2   0.0   -1596.359785   347.034736   -1041.104208
   330   0   2   0.0   -1596.359785   347.034736   -208.220842
   331   0   2   0.0   -1596.359785   347.034736   624.662525
   332   0   2   0.0   -1596.359785   347.034736   1457.545891
   333   0   2   0.0   -1596.359785   1179.918102   -1041.104208
   334   0   2   0.0   -1596.359785   1179.918102   -208.220842
   335   0   2   0.0   -1596.359785   1179.918102   624.662525
   336   0   2   0.0   -1596.359785   1179.918102   1457.545891
   337   0   2   0.0   -763.476419   -1318.731997   -1041.104208
   338   0   2   0.0   -763.476419   -1318.731997   -208.220842
   339   0   2   0.0   -763.476419   -1318.731997   624.662525
   340   0   2   0.0   -763.476419   -1318.731997   1457.545891
   341   0   2   0.0   -763.476419   -485.848630   -1041.104208
   342   0   2   0.0   -763.476419   -485.848630   -208.220842
   343   0   2   0.0   -763.476419   -485.848630   624.662525
   344   0   2   0.0   -763.476419   -485.848630   1457.545891
   345   0   2   0.0   -763.476419   347.034736   -1041.104208
   346   0   2   0.0   -763.476419   347.034736   -208.220842
   347   0   2   0.0   -763.476419   347.034736   624.662525
   348   0   2   0.0   -763.476419   347.034736   1457.545891
   349   0   2   0.0   -763.476419   1179.918102   -1041.104208
   350   0   2   0.0   -763.476419   1179.918102   -208.220842
   351   0   2   0.0   -763.476419   1179.918102   624.662525
   352   0   2   0.0   -763.476419   1179.918102   1457.545891
   353   0   2   0.0   69.406947   -1318.731997   -1041.104208
   354   0   2   0.0   69.406947   -1318.731997   -208.220842
   355   0   2   0.0   69.406947   -1318.731997   624.662525
   356   0   2   0.0   69.406947   -1318.731997   1457.545891
   357   0   2   0.0   69.406947   -485.848630   -1041.104208
   358   0   2   0.0   69.406947   -485.848630   -208.220842
   359   0   2   0.0   69.406947   -485.848630   624.662525
   360   0   2   0.0   69.406947   -485.848630   1457.545891
   361   0   2   0.0   69.406947   347.034736   -1041.104208
   362   0   2   0.0   69.406947   347.034736   -208.220842
   363   0   2   0.0   69.406947   347.034736   624.662525
   364   0   2   0.0   69.406947   347.034736   1457.545891
   365   0   2   0.0   69.406947   1179.918102   -1041.104208
   366   0   2   0.0   69.406947   1179.918102   -208.220842
   367   0   2   0.0   69.406947   1179.918102   624.662525
   368   0   2   0.0   69.406947   1179.918102   1457.545891
   369   0   2   0.0   902.290314   -1318.731997   -1041.104208
   370   0   2   0.0   902.290314   -1318.731997   -208.220842
   371   0   2   0.0   902.290314   -1318.731997   624.662525
   372   0   2   0.0   902.290314   -1318.731997   1457.545891
   373   0   2   0.0   902.290314   -485.848630   -1041.104208
   374   0   2   0.0   902.290314   -485.848630   -208.220842
   375   0   2   0.0   902.290314   -485.848630   624.662525
   376   0   2   0.0   902.290314   -485.848630   1457.545891
   377   0   2   0.0   902.290314   347.034736   -1041.104208
   378   0   2   0.0   902.290314   347.034736   -208.220842
   379   0   2   0.0   902.290314   347.034736   624.662525
   380   0   2   0.0   902.290314   347.034736   1457.545891
   381   0   2   0.0   902.290314   1179.918102   -1041.104208
   382   0   2   0.0   902.290314   1179.918102   -208.220842
   383   0   2   0.0   902.290314   1179.918102   624.662525
   384   0   2   0.0   902.290314   1179.918102   1457.545891
   385   0   2   0.0   -1596.359785   -1041.104208   -1596.359785
   386   0   2   0.0   -1596.359785   -1041.104208   -763.476419
   387   0   2   0.0   -1596.359785   -1041.104208   69.406947
   388   0   2   0.0   -1596.359785   -1041.104208   902.290314
   389   0   2   0.0   -1596.359785   -208.220842   -1596.359785
   390   0   2   0.0   -1596.359785   -208.220842   -763.476419
   391   0   2   0.0   -1596.359785   -208.220842   69.406947
   392   0   2   0.0   -1596.359785   -208.220842   902.290314
   393   0   2   0.0   -1596.359785   624.662525   -1596.359785
   394   0   2   0.0   -1596.359785   624.662525   -763.476419
   395   0   2   0.0   -1596.359785   624.662525   69.406947
   396   0   2   0.0   -1596.359785   624.662525   902.290314
   397   0   2   0.0   -1596.359785   1457.545891   -1596.359785
   398   0   2   0.0   -1596.359785   1457.545891   -763.476419
   399   0   2   0.0   -1596.359785   1457.545891   69.406947
   400   0   2   0.0   -1596.359785   1457.545891   902.290314
   401   0   2   0.0   -763.476419   -1041.104208   -1596.359785
   402   0   2   0.0   -763.476419   -1041.104208   -763.476419
   403   0   2   0.0   -763.476419   -1041.104208   69.406947
   404   0   2   0.0   -763.476419   -1041.104208   902.290314
   405   0   2   0.0   -763.476419   -208.220842   -1596.359785
   406   0   2   0.0   -763.476419   -208.220842   -763.476419
   407   0   2   0.0   -763.476419   -208.220842   69.406947
   408   0   2   0.0   -763.476419   -208.220842   902.290314
   409   0   2   0.0   -763.476419   624.662525   -1596.359785
   410   0   2   0.0   -763.476419   624.662525   -763.476419
   411   0   2   0.0   -763.476419   624.662525   69.406947
   412   0   2   0.0   -763.476419   624.662525   902.290314
   413   0   2   0.0   -763.476419   1457.545891   -1596.359785
   414   0   2   0.0   -763.476419   1457.545891   -763.476419
   415   0   2   0.0   -763.476419   1457.545891   69.406947
   416   0   2   0.0   -763.476419   1457.545891   902.290314
   417   0   2   0.0   69.406947   -1041.104208   -1596.359785
   418   0   2   0.0   69.406947   -1041.104208   -763.476419
   419   0   2   0.0   69.406947   -1041.104208   69.406947
   420   0   2   0.0   69.406947   -1041.104208   902.290314
   421   0   2   0.0   69.406947   -208.220842   -1596.359785
   422   0   2   0.0   69.406947   -208.220842   -763.476419
   423   0   2   0.0   69.406947   -208.220842   69.406947
   424   0   2   0.0   69.406947   -208.220842   902.290314
   425   0   2   0.0   69.406947   624.662525   -1596.359785
   426   0   2   0.0   69.406947   624.662525   -763.476419
   427   0   2   0.0   69.406947   624.662525   69.406947
   428   0   2   0.0   69.406947   624.662525   902.290314
   429   0   2   0.0   69.406947   1457.545891   -1596.359785
   430   0   2   0.0   69.406947   1457.545891   -763.476419
   431   0   2   0.0   69.406947   1457.545891   69.406947
   432   0   2   0.0   69.406947   1457.545891   902.290314
   433   0   2   0.0   902.290314   -1041.104208   -1596.359785
   434   0   2   0.0   902.290314   -1041.104208   -763.476419
   435   0   2   0.0   902.290314   -1041.104208   69.406947
   436   0   2   0.0   902.290314   -1041.104208   902.290314
   437   0   2   0.0   902.290314   -208.220842   -1596.359785
   438   0   2   0.0   902.290314   -208.220842   -763.476419
   439   0   2   0.0   902.290314   -208.220842   69.406947
   440   0   2   0.0   902.290314   -208.220842   902.290314
   441   0   2   0.0   902.290314   624.662525   -1596.359785
   442   0   2   0.0   902.290314   624.662525   -763.476419
   443   0   2   0.0   902.290314   624.662525   69.406947
   444   0   2   0.0   902.290314   624.662525   902.290314
   445   0   2   0.0   902.290314   1457.545891   -1596.359785
   446   0   2   0.0   902.290314   1457.545891   -763.476419
   447   0   2   0.0   902.290314   1457.545891   69.406947
   448   0   2   0.0   902.290314   1457.545891   902.290314
   449   0   2   0.0   -1596.359785   -1041.104208   -1318.731997
   450   0   2   0.0   -1596.359785   -1041.104208   -485.848630
   451   0   2   0.0   -1596.359785   -1041.104208   347.034736
   452   0   2   0.0   -1596.359785   -1041.104208   1179.918102
   453   0   2   0.0   -1596.359785   -208.220842   -1318.731997
   454   0   2   0.0   -1596.359785   -208.220842   -485.848630
   455   0   2   0.0   -1596.359785   -208.220842   347.034736
   456   0   2   0.0   -1596.359785   -208.220842   1179.918102
   457   0   2   0.0   -1596.359785   624.662525   -1318.731997
   458   0   2   0.0   -1596.359785   624.662525   -485.848630
   459   0   2   0.0   -1596.359785   624.662525   347.034736
   460   0   2   0.0   -1596.359785   624.662525   1179.918102
   461   0   2   0.0   -1596.359785   1457.545891   -1318.731997
   462   0   2   0.0   -1596.359785   1457.545891   -485.848630
   463   0   2   0.0   -1596.359785   1457.545891   347.034736
   464   0   2   0.0   -1596.359785   1457.545891   1179.918102
   465   0   2   0.0   -763.476419   -1041.104208   -1318.731997
   466   0   2   0.0   -763.476419   -1041.104208   -485.848630
   467   0   2   0.0   -763.476419   -1041.104208   347.034736
   468   0   2   0.0   -763.476419   -1041.104208   1179.918102
   469   0   2   0.0   -763.476419   -208.220842   -1318.731997
   470   0   2   0.0   -763.476419   -208.220842   -485.848630
   471   0   2   0.0   -763.476419   -208.220842   347.034736
   472   0   2   0.0   -763.476419   -208.220842   1179.918102
   473   0   2   0.0   -763.476419   624.662525   -1318.731997
   474   0   2   0.0   -763.476419   624.662525   -485.848630
   475   0   2   0.0   -763.476419   624.662525   347.034736
   476   0   2   0.0   -763.476419   624.662525   1179.918102
   477   0   2   0.0   -763.476419   1457.545891   -1318.731997
   478   0   2   0.0   -763.476419   1457.545891   -485.848630
   479   0   2   0.0   -763.476419   1457.545891   347.034736