(written by ASE)

128 atoms
0 bonds
2 atom types
0 bond types

0.0 1821.085750 xlo xhi
0.0 1821.085750 ylo yhi
0.0 1821.085750 zlo zhi
0.0 0.0 0.0 xy xz yz

Atoms # full

     1   0   1   0.0   0.000000   0.000000   0.000000
     2   0   1   0.0   0.000000   0.000000   336.024500
     3   0   1   0.0   0.000000   0.000000   672.049000
     4   0   1   0.0   0.000000   0.000000   1008.073500
     5   0   1   0.0   -0.000000   336.024500   0.000000
     6   0   1   0.0   -0.000000   336.024500   336.024500
     7   0   1   0.0   -0.000000   336.024500   672.049000
     8   0   1   0.0   -0.000000   336.024500   1008.073500
     9   0   1   0.0   -0.000000   672.049000   0.000000
    10   0   1   0.0   -0.000000   672.049000   336.024500
    11   0   1   0.0   -0.000000   672.049000   672.049000
    12   0   1   0.0   -0.000000   672.049000   1008.073500
    13   0   1   0.0   -0.000000   1008.073500   0.000000
    14   0   1   0.0   -0.000000   1008.073500   336.024500
    15   0   1   0.0   -0.000000   1008.073500   672.049000
    16   0   1   0.0   -0.000000   1008.073500   1008.073500
    17   0   1   0.0   336.024500   0.000000   0.000000
    18   0   1   0.0   336.024500   0.000000   336.024500
    19   0   1   0.0   336.024500   0.000000   672.049000
    20   0   1   0.0   336.024500   0.000000   1008.073500
    21   0   1   0.0   336.024500   336.024500   0.000000
    22   0   1   0.0   336.024500   336.024500   336.024500
    23   0   1   0.0   336.024500   336.024500   672.049000
    24   0   1   0.0   336.024500   336.024500   1008.073500
    25   0   1   0.0   336.024500   672.049000   0.000000
    26   0   1   0.0   336.024500   672.049000   336.024500
    27   0   1   0.0   336.024500   672.049000   672.049000
    28   0   1   0.0   336.024500   672.049000   1008.073500
    29   0   1   0.0   336.024500   1008.073500   0.000000
    30   0   1   0.0   336.024500   1008.073500   336.024500
    31   0   1   0.0   336.024500   1008.073500   672.049000
    32   0   1   0.0   336.024500   1008.073500   1008.073500
    33   0   1   0.0   672.049000   0.000000   0.000000
    34   0   1   0.0   672.049000   0.000000   336.024500
    35   0   1   0.0   672.049000   0.000000   672.049000
    36   0   1   0.0   672.049000   0.000000   1008.073500
    37   0   1   0.0   672.049000   336.024500   0.000000
    38   0   1   0.0   672.049000   336.024500   336.024500
    39   0   1   0.0   672.049000   336.024500   672.049000
    40   0   1   0.0   672.049000   336.024500   1008.073500
    41   0   1   0.0   672.049000   672.049000   0.000000
    42   0   1   0.0   672.049000   672.049000   336.024500
    43   0   1   0.0   672.049000   672.049000   672.049000
    44   0   1   0.0   672.049000   672.049000   1008.073500
    45   0   1   0.0   672.049000   1008.073500   0.000000
    46   0   1   0.0   672.049000   1008.073500   336.024500
    47   0   1   0.0   672.049000   1008.073500   672.049000
    48   0   1   0.0   672.049000   1008.073500   1008.073500
    49   0   1   0.0   1008.073500   0.000000   0.000000
    50   0   1   0.0   1008.073500   0.000000   336.024500
    51   0   1   0.0   1008.073500   0.000000   672.049000
    52   0   1   0.0   1008.073500   0.000000   1008.073500
    53   0   1   0.0   1008.073500   336.024500   0.000000
    54   0   1   0.0   1008.073500   336.024500   336.024500
    55   0   1   0.0   1008.073500   336.024500   672.049000
    56   0   1   0.0   1008.073500   336.024500   1008.073500
    57   0   1   0.0   1008.073500   672.049000   0.000000
    58   0   1   0.0   1008.073500   672.049000   336.024500
    59   0   1   0.0   1008.073500   672.049000   672.049000
    60   0   1   0.0   1008.073500   672.049000   1008.073500
    61   0   1   0.0   1008.073500   1008.073500   0.000000
    62   0   1   0.0   1008.073500   1008.073500   336.024500
    63   0   1   0.0   1008.073500   1008.073500   672.049000
    64   0   1   0.0   1008.073500   1008.073500   1008.073500
    65   0   2   0.0   168.012250   168.012250   168.012250
    66   0   2   0.0   168.012250   168.012250   504.036750
    67   0   2   0.0   168.012250   168.012250   840.061250
    68   0   2   0.0   168.012250   168.012250   1176.085750
    69   0   2   0.0   168.012250   504.036750   168.012250
    70   0   2   0.0   168.012250   504.036750   504.036750
    71   0   2   0.0   168.012250   504.036750   840.061250
    72   0   2   0.0   168.012250   504.036750   1176.085750
    73   0   2   0.0   168.012250   840.061250   168.012250
    74   0   2   0.0   168.012250   840.061250   504.036750
    75   0   2   0.0   168.012250   840.061250   840.061250
    76   0   2   0.0   168.012250   840.061250   1176.085750
    77   0   2   0.0   168.012250   1176.085750   168.012250
    78   0   2   0.0   168.012250   1176.085750   504.036750
    79   0   2   0.0   168.012250   1176.085750   840.061250
    80   0   2   0.0   168.012250   1176.085750   1176.085750
    81   0   2   0.0   504.036750   168.012250   168.012250
    82   0   2   0.0   504.036750   168.012250   504.036750
    83   0   2   0.0   504.036750   168.012250   840.061250
    84   0   2   0.0   504.036750   168.012250   1176.085750
    85   0   2   0.0   504.036750   504.036750   168.012250
    86   0   2   0.0   504.036750   504.036750   504.036750
    87   0   2   0.0   504.036750   504.036750   840.061250
    88   0   2   0.0   504.036750   504.036750   1176.085750
    89   0   2   0.0   504.036750   840.061250   168.012250
    90   0   2   0.0   504.036750   840.061250   504.036750
    91   0   2   0.0   504.036750   840.061250   840.061250
    92   0   2   0.0   504.036750   840.061250   1176.085750
    93   0   2   0.0   504.036750   1176.085750   168.012250
    94   0   2   0.0   504.036750   1176.085750   504.036750
    95   0   2   0.0   504.036750   1176.085750   840.061250
    96   0   2   0.0   504.036750   1176.085750   1176.085750
    97   0   2   0.0   840.061250   168.012250   168.012250
    98   0   2   0.0   840.061250   168.012250   504.036750
    99   0   2   0.0   840.061250   168.012250   840.061250
   100   0   2   0.0   840.061250   168.012250   1176.085750
   101   0   2   0.0   840.061250   504.036750   168.012250
   102   0   2   0.0   840.061250   504.036750   504.036750
   103   0   2   0.0   840.061250   504.036750   840.061250
   104   0   2   0.0   840.061250   504.036750   1176.085750
   105   0   2   0.0   840.061250   840.061250   168.012250
   106   0   2   0.0   840.061250   840.061250   504.036750
   107   0   2   0.0   840.061250   840.061250   840.061250
   108   0   2   0.0   840.061250   840.061250   1176.085750
   109   0   2   0.0   840.061250   1176.085750   168.012250
   110   0   2   0.0   840.061250   1176.085750   504.036750
   111   0   2   0.0   840.061250   1176.085750   840.061250
   112   0   2   0.0   840.061250   1176.085750   1176.085750
   113   0   2   0.0   1176.085750   168.012250   168.012250
   114   0   2   0.0   1176.085750   168.012250   504.036750
   115   0   2   0.0   1176.085750   168.012250   840.061250
   116   0   2   0.0   1176.085750   168.012250   1176.085750
   117   0   2   0.0   1176.085750   504.036750   168.012250
   118   0   2   0.0   1176.085750   504.036750   504.036750
   119   0   2   0.0   1176.085750   504.036750   840.061250
   120   0   2   0.0   1176.085750   504.036750   1176.085750
   121   0   2   0.0   1176.085750   840.061250   168.012250
   122   0   2   0.0   1176.085750   840.061250   504.036750
   123   0   2   0.0   1176.085750   840.061250   840.061250
   124   0   2   0.0   1176.085750   840.061250   1176.085750
   125   0   2   0.0   1176.085750   1176.085750   168.012250
   126   0   2   0.0   1176.085750   1176.085750   504.036750
   127   0   2   0.0   1176.085750   1176.085750   840.061250
   128   0   2   0.0   1176.085750   1176.085750   1176.085750
