(written by ASE)

432 atoms
0 bonds
2 atom types
0 bond types

0.0 820.802982 xlo xhi
0.0 820.802982 ylo yhi
0.0 820.802982 zlo zhi
0.0 0.0 0.0 xy xz yz

Atoms # full

     1   0   2   0.0   -700.802982   -700.802982   -700.802982
     2   0   2   0.0   -700.802982   -700.802982   -445.965534
     3   0   2   0.0   -700.802982   -700.802982   -191.128086
     4   0   2   0.0   -700.802982   -700.802982   63.709362
     5   0   2   0.0   -700.802982   -700.802982   318.546810
     6   0   2   0.0   -700.802982   -700.802982   573.384258
     7   0   2   0.0   -700.802982   -445.965534   -700.802982
     8   0   2   0.0   -700.802982   -445.965534   -445.965534
     9   0   2   0.0   -700.802982   -445.965534   -191.128086
    10   0   2   0.0   -700.802982   -445.965534   63.709362
    11   0   2   0.0   -700.802982   -445.965534   318.546810
    12   0   2   0.0   -700.802982   -445.965534   573.384258
    13   0   2   0.0   -700.802982   -191.128086   -700.802982
    14   0   2   0.0   -700.802982   -191.128086   -445.965534
    15   0   2   0.0   -700.802982   -191.128086   -191.128086
    16   0   2   0.0   -700.802982   -191.128086   63.709362
    17   0   2   0.0   -700.802982   -191.128086   318.546810
    18   0   2   0.0   -700.802982   -191.128086   573.384258
    19   0   2   0.0   -700.802982   63.709362   -700.802982
    20   0   2   0.0   -700.802982   63.709362   -445.965534
    21   0   2   0.0   -700.802982   63.709362   -191.128086
    22   0   2   0.0   -700.802982   63.709362   63.709362
    23   0   2   0.0   -700.802982   63.709362   318.546810
    24   0   2   0.0   -700.802982   63.709362   573.384258
    25   0   2   0.0   -700.802982   318.546810   -700.802982
    26   0   2   0.0   -700.802982   318.546810   -445.965534
    27   0   2   0.0   -700.802982   318.546810   -191.128086
    28   0   2   0.0   -700.802982   318.546810   63.709362
    29   0   2   0.0   -700.802982   318.546810   318.546810
    30   0   2   0.0   -700.802982   318.546810   573.384258
    31   0   2   0.0   -700.802982   573.384258   -700.802982
    32   0   2   0.0   -700.802982   573.384258   -445.965534
    33   0   2   0.0   -700.802982   573.384258   -191.128086
    34   0   2   0.0   -700.802982   573.384258   63.709362
    35   0   2   0.0   -700.802982   573.384258   318.546810
    36   0   2   0.0   -700.802982   573.384258   573.384258
    37   0   2   0.0   -445.965534   -700.802982   -700.802982
    38   0   2   0.0   -445.965534   -700.802982   -445.965534
    39   0   2   0.0   -445.965534   -700.802982   -191.128086
    40   0   2   0.0   -445.965534   -700.802982   63.709362
    41   0   2   0.0   -445.965534   -700.802982   318.546810
    42   0   2   0.0   -445.965534   -700.802982   573.384258
    43   0   2   0.0   -445.965534   -445.965534   -700.802982
    44   0   2   0.0   -445.965534   -445.965534   -445.965534
    45   0   2   0.0   -445.965534   -445.965534   -191.128086
    46   0   2   0.0   -445.965534   -445.965534   63.709362
    47   0   2   0.0   -445.965534   -445.965534   318.546810
    48   0   2   0.0   -445.965534   -445.965534   573.384258
    49   0   2   0.0   -445.965534   -191.128086   -700.802982
    50   0   2   0.0   -445.965534   -191.128086   -445.965534
    51   0   2   0.0   -445.965534   -191.128086   -191.128086
    52   0   2   0.0   -445.965534   -191.128086   63.709362
    53   0   2   0.0   -445.965534   -191.128086   318.546810
    54   0   2   0.0   -445.965534   -191.128086   573.384258
    55   0   2   0.0   -445.965534   63.709362   -700.802982
    56   0   2   0.0   -445.965534   63.709362   -445.965534
    57   0   2   0.0   -445.965534   63.709362   -191.128086
    58   0   2   0.0   -445.965534   63.709362   63.709362
    59   0   2   0.0   -445.965534   63.709362   318.546810
    60   0   2   0.0   -445.965534   63.709362   573.384258
    61   0   2   0.0   -445.965534   318.546810   -700.802982
    62   0   2   0.0   -445.965534   318.546810   -445.965534
    63   0   2   0.0   -445.965534   318.546810   -191.128086
    64   0   2   0.0   -445.965534   318.546810   63.709362
    65   0   2   0.0   -445.965534   318.546810   318.546810
    66   0   2   0.0   -445.965534   318.546810   573.384258
    67   0   2   0.0   -445.965534   573.384258   -700.802982
    68   0   2   0.0   -445.965534   573.384258   -445.965534
    69   0   2   0.0   -445.965534   573.384258   -191.128086
    70   0   2   0.0   -445.965534   573.384258   63.709362
    71   0   2   0.0   -445.965534   573.384258   318.546810
    72   0   2   0.0   -445.965534   573.384258   573.384258
    73   0   2   0.0   -191.128086   -700.802982   -700.802982
    74   0   2   0.0   -191.128086   -700.802982   -445.965534
    75   0   2   0.0   -191.128086   -700.802982   -191.128086
    76   0   2   0.0   -191.128086   -700.802982   63.709362
    77   0   2   0.0   -191.128086   -700.802982   318.546810
    78   0   2   0.0   -191.128086   -700.802982   573.384258
    79   0   2   0.0   -191.128086   -445.965534   -700.802982
    80   0   2   0.0   -191.128086   -445.965534   -445.965534
    81   0   2   0.0   -191.128086   -445.965534   -191.128086
    82   0   2   0.0   -191.128086   -445.965534   63.709362
    83   0   2   0.0   -191.128086   -445.965534   318.546810
    84   0   2   0.0   -191.128086   -445.965534   573.384258
    85   0   2   0.0   -191.128086   -191.128086   -700.802982
    86   0   2   0.0   -191.128086   -191.128086   -445.965534
    87   0   2   0.0   -191.128086   -191.128086   -191.128086
    88   0   2   0.0   -191.128086   -191.128086   63.709362
    89   0   2   0.0   -191.128086   -191.128086   318.546810
    90   0   2   0.0   -191.128086   -191.128086   573.384258
    91   0   2   0.0   -191.128086   63.709362   -700.802982
    92   0   2   0.0   -191.128086   63.709362   -445.965534
    93   0   2   0.0   -191.128086   63.709362   -191.128086
    94   0   2   0.0   -191.128086   63.709362   63.709362
    95   0   2   0.0   -191.128086   63.709362   318.546810
    96   0   2   0.0   -191.128086   63.709362   573.384258
    97   0   2   0.0   -191.128086   318.546810   -700.802982
    98   0   2   0.0   -191.128086   318.546810   -445.965534
    99   0   2   0.0   -191.128086   318.546810   -191.128086
   100   0   2   0.0   -191.128086   318.546810   63.709362
   101   0   2   0.0   -191.128086   318.546810   318.546810
   102   0   2   0.0   -191.128086   318.546810   573.384258
   103   0   2   0.0   -191.128086   573.384258   -700.802982
   104   0   2   0.0   -191.128086   573.384258   -445.965534
   105   0   2   0.0   -191.128086   573.384258   -191.128086
   106   0   2   0.0   -191.128086   573.384258   63.709362
   107   0   2   0.0   -191.128086   573.384258   318.546810
   108   0   2   0.0   -191.128086   573.384258   573.384258
   109   0   2   0.0   63.709362   -700.802982   -700.802982
   110   0   2   0.0   63.709362   -700.802982   -445.965534
   111   0   2   0.0   63.709362   -700.802982   -191.128086
   112   0   2   0.0   63.709362   -700.802982   63.709362
   113   0   2   0.0   63.709362   -700.802982   318.546810
   114   0   2   0.0   63.709362   -700.802982   573.384258
   115   0   2   0.0   63.709362   -445.965534   -700.802982
   116   0   2   0.0   63.709362   -445.965534   -445.965534
   117   0   2   0.0   63.709362   -445.965534   -191.128086
   118   0   2   0.0   63.709362   -445.965534   63.709362
   119   0   2   0.0   63.709362   -445.965534   318.546810
   120   0   2   0.0   63.709362   -445.965534   573.384258
   121   0   2   0.0   63.709362   -191.128086   -700.802982
   122   0   2   0.0   63.709362   -191.128086   -445.965534
   123   0   2   0.0   63.709362   -191.128086   -191.128086
   124   0   2   0.0   63.709362   -191.128086   63.709362
   125   0   2   0.0   63.709362   -191.128086   318.546810
   126   0   2   0.0   63.709362   -191.128086   573.384258
   127   0   2   0.0   63.709362   63.709362   -700.802982
   128   0   2   0.0   63.709362   63.709362   -445.965534
   129   0   2   0.0   63.709362   63.709362   -191.128086
   130   0   2   0.0   63.709362   63.709362   63.709362
   131   0   2   0.0   63.709362   63.709362   318.546810
   132   0   2   0.0   63.709362   63.709362   573.384258
   133   0   2   0.0   63.709362   318.546810   -700.802982
   134   0   2   0.0   63.709362   318.546810   -445.965534
   135   0   2   0.0   63.709362   318.546810   -191.128086
   136   0   2   0.0   63.709362   318.546810   63.709362
   137   0   2   0.0   63.709362   318.546810   318.546810
   138   0   2   0.0   63.709362   318.546810   573.384258
   139   0   2   0.0   63.709362   573.384258   -700.802982
   140   0   2   0.0   63.709362   573.384258   -445.965534
   141   0   2   0.0   63.709362   573.384258   -191.128086
   142   0   2   0.0   63.709362   573.384258   63.709362
   143   0   2   0.0   63.709362   573.384258   318.546810
   144   0   2   0.0   63.709362   573.384258   573.384258
   145   0   2   0.0   318.546810   -700.802982   -700.802982
   146   0   2   0.0   318.546810   -700.802982   -445.965534
   147   0   2   0.0   318.546810   -700.802982   -191.128086
   148   0   2   0.0   318.546810   -700.802982   63.709362
   149   0   2   0.0   318.546810   -700.802982   318.546810
   150   0   2   0.0   318.546810   -700.802982   573.384258
   151   0   2   0.0   318.546810   -445.965534   -700.802982
   152   0   2   0.0   318.546810   -445.965534   -445.965534
   153   0   2   0.0   318.546810   -445.965534   -191.128086
   154   0   2   0.0   318.546810   -445.965534   63.709362
   155   0   2   0.0   318.546810   -445.965534   318.546810
   156   0   2   0.0   318.546810   -445.965534   573.384258
   157   0   2   0.0   318.546810   -191.128086   -700.802982
   158   0   2   0.0   318.546810   -191.128086   -445.965534
   159   0   2   0.0   318.546810   -191.128086   -191.128086
   160   0   2   0.0   318.546810   -191.128086   63.709362
   161   0   2   0.0   318.546810   -191.128086   318.546810
   162   0   2   0.0   318.546810   -191.128086   573.384258
   163   0   2   0.0   318.546810   63.709362   -700.802982
   164   0   2   0.0   318.546810   63.709362   -445.965534
   165   0   2   0.0   318.546810   63.709362   -191.128086
   166   0   2   0.0   318.546810   63.709362   63.709362
   167   0   2   0.0   318.546810   63.709362   318.546810
   168   0   2   0.0   318.546810   63.709362   573.384258
   169   0   2   0.0   318.546810   318.546810   -700.802982
   170   0   2   0.0   318.546810   318.546810   -445.965534
   171   0   2   0.0   318.546810   318.546810   -191.128086
   172   0   2   0.0   318.546810   318.546810   63.709362
   173   0   2   0.0   318.546810   318.546810   318.546810
   174   0   2   0.0   318.546810   318.546810   573.384258
   175   0   2   0.0   318.546810   573.384258   -700.802982
   176   0   2   0.0   318.546810   573.384258   -445.965534
   177   0   2   0.0   318.546810   573.384258   -191.128086
   178   0   2   0.0   318.546810   573.384258   63.709362
   179   0   2   0.0   318.546810   573.384258   318.546810
   180   0   2   0.0   318.546810   573.384258   573.384258
   181   0   2   0.0   573.384258   -700.802982   -700.802982
   182   0   2   0.0   573.384258   -700.802982   -445.965534
   183   0   2   0.0   573.384258   -700.802982   -191.128086
   184   0   2   0.0   573.384258   -700.802982   63.709362
   185   0   2   0.0   573.384258   -700.802982   318.546810
   186   0   2   0.0   573.384258   -700.802982   573.384258
   187   0   2   0.0   573.384258   -445.965534   -700.802982
   188   0   2   0.0   573.384258   -445.965534   -445.965534
   189   0   2   0.0   573.384258   -445.965534   -191.128086
   190   0   2   0.0   573.384258   -445.965534   63.709362
   191   0   2   0.0   573.384258   -445.965534   318.546810
   192   0   2   0.0   573.384258   -445.965534   573.384258
   193   0   2   0.0   573.384258   -191.128086   -700.802982
   194   0   2   0.0   573.384258   -191.128086   -445.965534
   195   0   2   0.0   573.384258   -191.128086   -191.128086
   196   0   2   0.0   573.384258   -191.128086   63.709362
   197   0   2   0.0   573.384258   -191.128086   318.546810
   198   0   2   0.0   573.384258   -191.128086   573.384258
   199   0   2   0.0   573.384258   63.709362   -700.802982
   200   0   2   0.0   573.384258   63.709362   -445.965534
   201   0   2   0.0   573.384258   63.709362   -191.128086
   202   0   2   0.0   573.384258   63.709362   63.709362
   203   0   2   0.0   573.384258   63.709362   318.546810
   204   0   2   0.0   573.384258   63.709362   573.384258
   205   0   2   0.0   573.384258   318.546810   -700.802982
   206   0   2   0.0   573.384258   318.546810   -445.965534
   207   0   2   0.0   573.384258   318.546810   -191.128086
   208   0   2   0.0   573.384258   318.546810   63.709362
   209   0   2   0.0   573.384258   318.546810   318.546810
   210   0   2   0.0   573.384258   318.546810   573.384258
   211   0   2   0.0   573.384258   573.384258   -700.802982
   212   0   2   0.0   573.384258   573.384258   -445.965534
   213   0   2   0.0   573.384258   573.384258   -191.128086
   214   0   2   0.0   573.384258   573.384258   63.709362
   215   0   2   0.0   573.384258   573.384258   318.546810
   216   0   2   0.0   573.384258   573.384258   573.384258
   217   0   1   0.0   -573.384258   -573.384258   -573.384258
   218   0   1   0.0   -573.384258   -573.384258   -318.546810
   219   0   1   0.0   -573.384258   -573.384258   -63.709362
   220   0   1   0.0   -573.384258   -573.384258   191.128086
   221   0   1   0.0   -573.384258   -573.384258   445.965534
   222   0   1   0.0   -573.384258   -573.384258   700.802982
   223   0   1   0.0   -573.384258   -318.546810   -573.384258
   224   0   1   0.0   -573.384258   -318.546810   -318.546810
   225   0   1   0.0   -573.384258   -318.546810   -63.709362
   226   0   1   0.0   -573.384258   -318.546810   191.128086
   227   0   1   0.0   -573.384258   -318.546810   445.965534
   228   0   1   0.0   -573.384258   -318.546810   700.802982
   229   0   1   0.0   -573.384258   -63.709362   -573.384258
   230   0   1   0.0   -573.384258   -63.709362   -318.546810
   231   0   1   0.0   -573.384258   -63.709362   -63.709362
   232   0   1   0.0   -573.384258   -63.709362   191.128086
   233   0   1   0.0   -573.384258   -63.709362   445.965534
   234   0   1   0.0   -573.384258   -63.709362   700.802982
   235   0   1   0.0   -573.384258   191.128086   -573.384258
   236   0   1   0.0   -573.384258   191.128086   -318.546810
   237   0   1   0.0   -573.384258   191.128086   -63.709362
   238   0   1   0.0   -573.384258   191.128086   191.128086
   239   0   1   0.0   -573.384258   191.128086   445.965534
   240   0   1   0.0   -573.384258   191.128086   700.802982
   241   0   1   0.0   -573.384258   445.965534   -573.384258
   242   0   1   0.0   -573.384258   445.965534   -318.546810
   243   0   1   0.0   -573.384258   445.965534   -63.709362
   244   0   1   0.0   -573.384258   445.965534   191.128086
   245   0   1   0.0   -573.384258   445.965534   445.965534
   246   0   1   0.0   -573.384258   445.965534   700.802982
   247   0   1   0.0   -573.384258   700.802982   -573.384258
   248   0   1   0.0   -573.384258   700.802982   -318.546810
   249   0   1   0.0   -573.384258   700.802982   -63.709362
   250   0   1   0.0   -573.384258   700.802982   191.128086
   251   0   1   0.0   -573.384258   700.802982   445.965534
   252   0   1   0.0   -573.384258   700.802982   700.802982
   253   0   1   0.0   -318.546810   -573.384258   -573.384258
   254   0   1   0.0   -318.546810   -573.384258   -318.546810
   255   0   1   0.0   -318.546810   -573.384258   -63.709362
   256   0   1   0.0   -318.546810   -573.384258   191.128086
   257   0   1   0.0   -318.546810   -573.384258   445.965534
   258   0   1   0.0   -318.546810   -573.384258   700.802982
   259   0   1   0.0   -318.546810   -318.546810   -573.384258
   260   0   1   0.0   -318.546810   -318.546810   -318.546810
   261   0   1   0.0   -318.546810   -318.546810   -63.709362
   262   0   1   0.0   -318.546810   -318.546810   191.128086
   263   0   1   0.0   -318.546810   -318.546810   445.965534
   264   0   1   0.0   -318.546810   -318.546810   700.802982
   265   0   1   0.0   -318.546810   -63.709362   -573.384258
   266   0   1   0.0   -318.546810   -63.709362   -318.546810
   267   0   1   0.0   -318.546810   -63.709362   -63.709362
   268   0   1   0.0   -318.546810   -63.709362   191.128086
   269   0   1   0.0   -318.546810   -63.709362   445.965534
   270   0   1   0.0   -318.546810   -63.709362   700.802982
   271   0   1   0.0   -318.546810   191.128086   -573.384258
   272   0   1   0.0   -318.546810   191.128086   -318.546810
   273   0   1   0.0   -318.546810   191.128086   -63.709362
   274   0   1   0.0   -318.546810   191.128086   191.128086
   275   0   1   0.0   -318.546810   191.128086   445.965534
   276   0   1   0.0   -318.546810   191.128086   700.802982
   277   0   1   0.0   -318.546810   445.965534   -573.384258
   278   0   1   0.0   -318.546810   445.965534   -318.546810
   279   0   1   0.0   -318.546810   445.965534   -63.709362
   280   0   1   0.0   -318.546810   445.965534   191.128086
   281   0   1   0.0   -318.546810   445.965534   445.965534
   282   0   1   0.0   -318.546810   445.965534   700.802982
   283   0   1   0.0   -318.546810   700.802982   -573.384258
   284   0   1   0.0   -318.546810   700.802982   -318.546810
   285   0   1   0.0   -318.546810   700.802982   -63.709362
   286   0   1   0.0   -318.546810   700.802982   191.128086
   287   0   1   0.0   -318.546810   700.802982   445.965534
   288   0   1   0.0   -318.546810   700.802982   700.802982
   289   0   1   0.0   -63.709362   -573.384258   -573.384258
   290   0   1   0.0   -63.709362   -573.384258   -318.546810
   291   0   1   0.0   -63.709362   -573.384258   -63.709362
   292   0   1   0.0   -63.709362   -573.384258   191.128086
   293   0   1   0.0   -63.709362   -573.384258   445.965534
   294   0   1   0.0   -63.709362   -573.384258   700.802982
   295   0   1   0.0   -63.709362   -318.546810   -573.384258
   296   0   1   0.0   -63.709362   -318.546810   -318.546810
   297   0   1   0.0   -63.709362   -318.546810   -63.709362
   298   0   1   0.0   -63.709362   -318.546810   191.128086
   299   0   1   0.0   -63.709362   -318.546810   445.965534
   300   0   1   0.0   -63.709362   -318.546810   700.802982
   301   0   1   0.0   -63.709362   -63.709362   -573.384258
   302   0   1   0.0   -63.709362   -63.709362   -318.546810
   303   0   1   0.0   -63.709362   -63.709362   -63.709362
   304   0   1   0.0   -63.709362   -63.709362   191.128086
   305   0   1   0.0   -63.709362   -63.709362   445.965534
   306   0   1   0.0   -63.709362   -63.709362   700.802982
   307   0   1   0.0   -63.709362   191.128086   -573.384258
   308   0   1   0.0   -63.709362   191.128086   -318.546810
   309   0   1   0.0   -63.709362   191.128086   -63.709362
   310   0   1   0.0   -63.709362   191.128086   191.128086
   311   0   1   0.0   -63.709362   191.128086   445.965534
   312   0   1   0.0   -63.709362   191.128086   700.802982
   313   0   1   0.0   -63.709362   445.965534   -573.384258
   314   0   1   0.0   -63.709362   445.965534   -318.546810
   315   0   1   0.0   -63.709362   445.965534   -63.709362
   316   0   1   0.0   -63.709362   445.965534   191.128086
   317   0   1   0.0   -63.709362   445.965534   445.965534
   318   0   1   0.0   -63.709362   445.965534   700.802982
   319   0   1   0.0   -63.709362   700.802982   -573.384258
   320   0   1   0.0   -63.709362   700.802982   -318.546810
   321   0   1   0.0   -63.709362   700.802982   -63.709362
   322   0   1   0.0   -63.709362   700.802982   191.128086
   323   0   1   0.0   -63.709362   700.802982   445.965534
   324   0   1   0.0   -63.709362   700.802982   700.802982
   325   0   1   0.0   191.128086   -573.384258   -573.384258
   326   0   1   0.0   191.128086   -573.384258   -318.546810
   327   0   1   0.0   191.128086   -573.384258   -63.709362
   328   0   1   0.0   191.128086   -573.384258   191.128086
   329   0   1   0.0   191.128086   -573.384258   445.965534
   330   0   1   0.0   191.128086   -573.384258   700.802982
   331   0   1   0.0   191.128086   -318.546810   -573.384258
   332   0   1   0.0   191.128086   -318.546810   -318.546810
   333   0   1   0.0   191.128086   -318.546810   -63.709362
   334   0   1   0.0   191.128086   -318.546810   191.128086
   335   0   1   0.0   191.128086   -318.546810   445.965534
   336   0   1   0.0   191.128086   -318.546810   700.802982
   337   0   1   0.0   191.128086   -63.709362   -573.384258
   338   0   1   0.0   191.128086   -63.709362   -318.546810
   339   0   1   0.0   191.128086   -63.709362   -63.709362
   340   0   1   0.0   191.128086   -63.709362   191.128086
   341   0   1   0.0   191.128086   -63.709362   445.965534
   342   0   1   0.0   191.128086   -63.709362   700.802982
   343   0   1   0.0   191.128086   191.128086   -573.384258
   344   0   1   0.0   191.128086   191.128086   -318.546810
   345   0   1   0.0   191.128086   191.128086   -63.709362
   346   0   1   0.0   191.128086   191.128086   191.128086
   347   0   1   0.0   191.128086   191.128086   445.965534
   348   0   1   0.0   191.128086   191.128086   700.802982
   349   0   1   0.0   191.128086   445.965534   -573.384258
   350   0   1   0.0   191.128086   445.965534   -318.546810
   351   0   1   0.0   191.128086   445.965534   -63.709362
   352   0   1   0.0   191.128086   445.965534   191.128086
   353   0   1   0.0   191.128086   445.965534   445.965534
   354   0   1   0.0   191.128086   445.965534   700.802982
   355   0   1   0.0   191.128086   700.802982   -573.384258
   356   0   1   0.0   191.128086   700.802982   -318.546810
   357   0   1   0.0   191.128086   700.802982   -63.709362
   358   0   1   0.0   191.128086   700.802982   191.128086
   359   0   1   0.0   191.128086   700.802982   445.965534
   360   0   1   0.0   191.128086   700.802982   700.802982
   361   0   1   0.0   445.965534   -573.384258   -573.384258
   362   0   1   0.0   445.965534   -573.384258   -318.546810
   363   0   1   0.0   445.965534   -573.384258   -63.709362
   364   0   1   0.0   445.965534   -573.384258   191.128086
   365   0   1   0.0   445.965534   -573.384258   445.965534
   366   0   1   0.0   445.965534   -573.384258   700.802982
   367   0   1   0.0   445.965534   -318.546810   -573.384258
   368   0   1   0.0   445.965534   -318.546810   -318.546810
   369   0   1   0.0   445.965534   -318.546810   -63.709362
   370   0   1   0.0   445.965534   -318.546810   191.128086
   371   0   1   0.0   445.965534   -318.546810   445.965534
   372   0   1   0.0   445.965534   -318.546810   700.802982
   373   0   1   0.0   445.965534   -63.709362   -573.384258
   374   0   1   0.0   445.965534   -63.709362   -318.546810
   375   0   1   0.0   445.965534   -63.709362   -63.709362
   376   0   1   0.0   445.965534   -63.709362   191.128086
   377   0   1   0.0   445.965534   -63.709362   445.965534
   378   0   1   0.0   445.965534   -63.709362   700.802982
   379   0   1   0.0   445.965534   191.128086   -573.384258
   380   0   1   0.0   445.965534   191.128086   -318.546810
   381   0   1   0.0   445.965534   191.128086   -63.709362
   382   0   1   0.0   445.965534   191.128086   191.128086
   383   0   1   0.0   445.965534   191.128086   445.965534
   384   0   1   0.0   445.965534   191.128086   700.802982
   385   0   1   0.0   445.965534   445.965534   -573.384258
   386   0   1   0.0   445.965534   445.965534   -318.546810
   387   0   1   0.0   445.965534   445.965534   -63.709362
   388   0   1   0.0   445.965534   445.965534   191.128086
   389   0   1   0.0   445.965534   445.965534   445.965534
   390   0   1   0.0   445.965534   445.965534   700.802982
   391   0   1   0.0   445.965534   700.802982   -573.384258
   392   0   1   0.0   445.965534   700.802982   -318.546810
   393   0   1   0.0   445.965534   700.802982   -63.709362
   394   0   1   0.0   445.965534   700.802982   191.128086
   395   0   1   0.0   445.965534   700.802982   445.965534
   396   0   1   0.0   445.965534   700.802982   700.802982
   397   0   1   0.0   700.802982   -573.384258   -573.384258
   398   0   1   0.0   700.802982   -573.384258   -318.546810
   399   0   1   0.0   700.802982   -573.384258   -63.709362
   400   0   1   0.0   700.802982   -573.384258   191.128086
   401   0   1   0.0   700.802982   -573.384258   445.965534
   402   0   1   0.0   700.802982   -573.384258   700.802982
   403   0   1   0.0   700.802982   -318.546810   -573.384258
   404   0   1   0.0   700.802982   -318.546810   -318.546810
   405   0   1   0.0   700.802982   -318.546810   -63.709362
   406   0   1   0.0   700.802982   -318.546810   191.128086
   407   0   1   0.0   700.802982   -318.546810   445.965534
   408   0   1   0.0   700.802982   -318.546810   700.802982
   409   0   1   0.0   700.802982   -63.709362   -573.384258
   410   0   1   0.0   700.802982   -63.709362   -318.546810
   411   0   1   0.0   700.802982   -63.709362   -63.709362
   412   0   1   0.0   700.802982   -63.709362   191.128086
   413   0   1   0.0   700.802982   -63.709362   445.965534
   414   0   1   0.0   700.802982   -63.709362   700.802982
   415   0   1   0.0   700.802982   191.128086   -573.384258
   416   0   1   0.0   700.802982   191.128086   -318.546810
   417   0   1   0.0   700.802982   191.128086   -63.709362
   418   0   1   0.0   700.802982   191.128086   191.128086
   419   0   1   0.0   700.802982   191.128086   445.965534
   420   0   1   0.0   700.802982   191.128086   700.802982
   421   0   1   0.0   700.802982   445.965534   -573.384258
   422   0   1   0.0   700.802982   445.965534   -318.546810
   423   0   1   0.0   700.802982   445.965534   -63.709362
   424   0   1   0.0   700.802982   445.965534   191.128086
   425   0   1   0.0   700.802982   445.965534   445.965534
   426   0   1   0.0   700.802982   445.965534   700.802982
   427   0   1   0.0   700.802982   700.802982   -573.384258
   428   0   1   0.0   700.802982   700.802982   -318.546810
   429   0   1   0.0   700.802982   700.802982   -63.709362
   430   0   1   0.0   700.802982   700.802982   191.128086
   431   0   1   0.0   700.802982   700.802982   445.965534
   432   0   1   0.0   700.802982   700.802982   700.802982
